Position Data

4187 atoms
187 bonds

3 atom types
1 bond types

0.00 17.0 xlo xhi
0.00 17.0 ylo yhi
0.00 17.0 zlo zhi

Atoms

39 0 1 0.136776 0.856358 1.57411
119 1 1 1.14985 1.60637 0.402084
40 2 1 1.18318 0.52189 1.43701
3608 3 1 1.61841 1.68305 1.32618
3279 4 1 0.226284 0.791143 0.137734
441 5 1 2.15488 0.411227 0.510793
804 6 1 3.2856 1.16498 1.43082
77 7 1 3.23087 0.75701 0.47921
842 8 1 4.50724 0.69912 0.912575
802 9 1 3.65703 0.162117 1.36891
519 10 1 4.19036 1.33764 0.049649
1638 11 2 6.46347 1.39871 0.875795
4001 11 3 6.81347 1.74871 1.225795
1279 12 1 5.42138 1.19607 1.1301
1640 13 1 6.18975 0.47376 0.329509
1601 14 1 6.29036 0.222158 1.61828
1643 15 1 7.70612 0.99045 1.42077
1602 16 1 7.33153 0.191169 0.85985
2078 17 1 7.93885 1.47276 0.0824327
126 18 1 1.26821 2.70799 0.594305
3643 19 1 0.923003 2.64381 1.59405
81 20 1 0.237063 3.06752 0.331169
3641 21 1 0.0120928 1.9931 0.254133
86 22 1 0.0865437 3.39662 1.34709
42 23 1 2.07431 2.83303 1.36035
44 24 1 2.53261 1.87501 0.819991
525 25 1 3.10874 2.84453 0.694161
487 26 1 3.39269 2.3994 1.5365
482 27 1 2.37953 3.25315 0.24931
1284 28 1 4.87538 3.29284 0.219321
848 29 1 4.25846 2.41341 0.368513
885 30 1 4.19994 3.0581 1.36872
1285 31 1 4.70409 1.96528 1.25232
444 32 1 5.40811 1.77223 0.0921108
1677 33 1 6.54054 2.55493 0.533651
1644 34 1 5.53832 2.62299 1.15449
1678 35 1 7.01102 3.01735 1.60329
1679 36 1 7.63977 2.07228 0.831299
1723 37 1 7.86071 3.22569 1.08792
1681 38 1 7.84245 2.90654 0.0904355
82 39 1 1.45371 4.56865 0.536133
121 40 1 1.21395 3.72565 1.08751
84 41 1 0.46666 4.40855 1.16652
159 42 1 0.466476 4.04468 0.133021
3724 43 1 1.33105 4.84031 1.59348
925 44 1 2.46268 4.11436 1.14957
1365 45 1 3.1919 5.03696 0.907002
521 46 1 3.21653 4.34762 0.11207
448 47 2 3.77677 3.51181 0.198809
4002 47 3 4.12677 3.86181 0.548809
523 48 1 3.50299 3.84086 1.14679
928 49 1 4.32427 4.4673 1.22025
1282 50 1 4.2084 4.97698 0.234216
1325 51 1 5.01011 3.90064 1.56917
883 52 1 5.24539 4.24709 0.499615
1682 53 1 6.16109 3.58942 0.460022
1725 54 1 6.39305 4.7423 0.4609
1401 55 1 5.69647 4.7401 1.51165
1288 56 1 6.03818 3.44715 1.56174
2161 57 1 7.6562 4.49755 1.28483
2122 58 1 8.4876 4.85186 0.708866
1244 59 1 7.15566 3.94375 0.537313
1363 60 1 7.3214 5.02898 0.32158
1726 61 1 8.26053 3.9215 0.373552
565 62 2 1.5834 5.96036 0.434454
4003 62 3 1.9333999999999998 6.310359999999999 0.784454
201 63 1 0.476008 6.47679 0.385458
128 64 1 0.560392 5.5203 1.32193
3803 65 1 1.59188 5.95661 1.52623
127 66 1 2.33188 5.1455 0.385019
563 67 1 2.5923 6.59739 1.3539
922 68 1 2.4854 5.42723 1.56527
163 69 1 3.39335 6.7929 0.495331
564 70 1 3.42744 6.02764 1.10912
1404 71 2 4.83614 5.58399 0.949286
4004 71 3 5.18614 5.93399 1.299286
924 72 1 4.18031 6.10829 0.309982
1319 73 1 5.56833 5.11512 0.0691681
1321 74 1 6.12684 6.03374 0.0597996
1323 75 1 6.03258 5.6637 1.11862
1764 76 1 7.04771 5.97193 0.74803
1721 77 1 8.38625 5.64895 1.33914
2124 78 1 8.08151 5.79151 0.248235
1767 79 1 7.11053 5.37816 1.63496
1804 80 2 8.1296 6.64485 1.02938
4005 80 3 8.4796 6.99485 1.3793799999999998
203 81 1 1.3225 6.94794 0.982775
240 82 1 1.50103 7.77651 0.353845
3839 83 1 0.287654 7.3718 1.04033
3878 84 1 0.879567 8.44089 0.772544
605 85 1 0.876501 7.9971 1.69204
969 86 1 2.20178 6.98229 0.291741
601 87 1 2.68585 7.77221 0.702865
1039 88 2 1.79062 8.24787 1.37127
4006 88 3 2.14062 8.59787 1.72127
965 89 1 3.50634 7.04139 1.68288
559 90 1 4.29311 7.09259 0.80884
1000 91 1 4.54849 8.17175 0.857015
958 92 1 3.67148 7.8057 0.270552
1001 93 1 3.75299 8.04188 1.38706
1360 94 1 5.34682 6.83347 0.510428
1438 95 1 5.49665 7.58275 1.28286
1439 96 1 6.16124 6.80626 1.22913
1802 97 1 6.31209 8.05582 0.610574
962 98 1 6.61521 7.81726 1.57412
1399 99 1 6.50929 7.06116 0.00108056
1808 100 1 7.12932 7.22157 0.93025
1844 101 1 8.40413 7.64329 0.492377
2602 102 2 7.7448 7.80283 1.44781
4007 102 3 8.0948 8.15283 1.7978100000000001
1879 103 1 7.22915 7.99077 0.0515958
45 104 1 0.222115 1.64587 2.18856
48 105 1 1.20728 1.15662 2.27474
6 106 1 0.699587 0.121687 2.58169
3648 107 1 0.188867 0.980348 3.20982
41 108 1 2.16013 0.75987 1.81729
412 109 1 2.08327 1.06183 2.97323
483 110 1 3.02908 0.523462 2.45703
3 111 1 2.35339 0.0989437 3.20397
1245 112 1 4.49441 1.21884 1.84477
887 113 1 4.52167 1.45239 2.8705
1247 114 1 4.17302 0.445436 2.64419
1641 115 1 4.87149 0.274562 1.79999
485 116 2 3.58528 1.54071 2.35056
4008 116 3 3.93528 1.89071 2.7005600000000003
1248 117 1 5.37179 0.637969 2.7581
1648 118 1 6.22268 1.29747 1.91549
2011 119 1 6.31064 0.602114 3.18105
1646 120 1 7.03394 0.781453 2.22681
2085 121 1 7.91727 1.07558 2.70925
1604 122 1 7.30164 0.0860316 2.9566
2048 123 1 8.46052 0.15376 1.70643
88 124 1 0.780926 1.88028 3.03676
446 125 1 1.09482 2.76741 2.66855
3687 126 1 0.0479796 2.70244 2.25983
527 127 1 2.9422 3.30736 1.82242
43 128 1 2.48374 1.83265 1.99641
488 129 1 3.18827 2.64677 2.58854
90 130 1 2.20251 2.87887 2.5642
491 131 1 3.6489 1.96036 3.34933
889 132 1 4.32626 2.90112 3.07477
481 133 1 4.22663 2.34919 2.16081
1289 134 1 5.0448 2.99607 2.25085
1283 135 1 5.37472 3.23768 3.2063
1693 136 1 6.31965 2.84374 3.32723
1687 137 1 6.24537 1.72867 2.93186
852 138 1 5.44131 1.95535 2.12353
1685 139 1 6.17957 2.56959 2.13604
1642 140 1 7.0047 1.91864 1.72726
1691 141 1 7.22069 2.50633 2.71887
2087 142 1 8.33123 1.88236 1.86481
1730 143 1 8.19099 2.06047 2.87039
1692 144 1 8.20714 3.1088 2.24227
87 145 1 0.989966 3.60255 3.3668
526 146 1 1.34251 4.69677 2.62679
3647 147 1 0.810803 3.71301 2.23755
3728 148 1 0.150276 4.84054 2.13495
529 149 2 1.85952 3.73042 1.92591
4009 149 3 2.20952 4.08042 2.27591
496 150 2 1.89871 4.09061 3.29949
4010 150 3 2.24871 4.4406099999999995 3.64949
891 151 1 2.98354 3.72145 2.8155
522 152 1 2.47729 4.50191 2.2455
528 153 1 3.4572 4.67857 1.98622
929 154 1 4.35149 4.20014 2.90508
1286 155 1 3.83914 3.4958 2.32413
1366 156 1 4.38472 5.02924 2.07639
1326 157 1 5.49214 4.78739 3.28663
1327 158 1 6.79651 4.32739 1.85228
1686 159 1 6.41209 3.64339 2.51731
1370 160 1 5.48947 4.21502 2.40193
1766 161 1 6.28483 5.0173 2.53913
1728 162 1 6.34019 4.22116 3.38337
2165 163 1 7.36803 4.02889 2.87702
2163 164 1 7.92146 4.77831 2.31404
132 165 1 0.851004 5.76266 2.28399
3768 166 1 0.538453 6.69228 1.88328
530 167 1 0.758113 6.17207 3.37419
567 168 1 2.70886 5.7609 3.20448
888 169 1 3.23307 5.91884 2.15433
162 170 1 1.89559 6.07455 2.54056
931 171 1 3.59183 5.15295 3.02138
968 172 1 4.67515 5.58344 3.1028
1368 173 1 4.24446 6.2121 1.80439
967 174 1 3.74693 6.27294 3.15469
1003 175 1 4.8468 6.53429 2.77163
562 176 1 5.27564 6.64625 1.8187
1364 177 1 5.19907 5.63802 2.1232
1361 178 1 6.27384 5.95513 2.1015
1328 179 1 5.81599 5.8797 2.99651
1409 180 1 6.93222 6.30541 2.89082
1765 181 2 7.30953 6.47447 1.70435
4011 181 3 7.659529999999999 6.82447 2.05435
1798 182 1 7.15659 5.20825 3.02955
1762 183 1 7.70512 5.85694 2.35611
209 184 1 0.595951 7.77466 3.25078
3805 185 1 0.058689 7.67806 2.29655
172 186 1 0.101149 6.85226 2.91393
606 187 1 1.17784 6.87044 2.65912
608 188 1 2.65628 8.33836 3.12328
926 189 1 2.58903 7.11873 2.81464
569 190 1 1.88353 7.28942 1.91529
168 191 1 1.75986 7.83212 2.8094
647 192 1 2.7482 7.88598 1.83186
568 193 1 4.65691 8.3549 1.87337
561 194 1 4.58393 7.34281 1.8219
1012 195 1 3.86542 8.29897 2.45608
572 196 1 3.66173 7.26009 2.7053
1002 197 1 5.15156 7.62378 2.6986
1446 198 1 6.2442 7.91508 2.78491
1362 199 1 6.13112 6.9685 2.59785
1405 200 1 7.98884 7.90149 2.9406
1402 201 1 7.12283 7.47535 2.44668
1805 202 1 7.85836 6.88239 2.92508
409 203 1 0.917964 0.293209 4.89073
46 204 1 0.224432 0.835812 4.26431
452 205 1 1.39881 1.29086 4.93716
809 206 1 1.26377 1.09076 3.82575
47 207 1 0.988745 0.0468334 3.57943
456 208 1 2.33038 1.34655 4.33759
1209 209 1 3.05922 0.452076 4.2803
806 210 1 1.92026 0.384409 4.25093
408 211 1 3.06657 1.08819 3.41327
1249 212 1 4.37893 0.103986 3.66571
812 213 1 4.20107 1.11397 4.0583
847 214 1 5.14518 0.482748 4.41929
1645 215 1 6.67216 0.161428 4.15988
1256 216 1 6.3303 1.38006 4.31311
1252 217 1 5.4856 1.27837 3.69556
1576 218 1 7.1872 0.785838 4.88786
1652 219 1 7.66568 0.554188 3.95792
2091 220 1 8.49267 0.266383 4.57442
1690 221 1 7.12092 1.30824 3.53812
1651 222 1 8.18891 1.31956 4.96469
2049 223 1 8.43652 1.33507 3.78981
52 224 1 0.727532 2.1698 4.76629
493 225 1 0.968716 3.03617 4.194
91 226 1 1.52198 2.08407 4.13772
3691 227 1 0.224849 2.53021 3.57033
846 228 1 3.21012 1.8164 4.32207
890 229 1 3.14338 2.81801 4.9422
489 230 1 1.87054 3.0157 3.46372
56 231 1 1.78466 2.26994 5.08852
490 232 1 3.07434 2.87429 3.6682
486 233 1 2.47997 2.05655 3.4865
851 234 1 4.94671 1.91933 4.68073
1293 235 1 3.96732 2.84575 4.1938
1689 236 1 4.92606 2.37785 3.74978
856 237 1 5.93849 2.4362 4.34932
1287 238 1 5.37368 3.28774 4.705
1251 239 1 7.28374 1.77318 4.4946
1656 240 1 6.92206 2.90436 4.54963
1296 241 1 8.13906 2.27521 4.11662
1736 242 1 7.87944 3.23816 4.48447
2090 243 1 7.57292 3.18228 3.40814
95 244 1 0.243182 3.78148 4.82517
92 245 1 1.65219 4.03078 4.48787
533 246 1 1.10188 5.06324 4.50863
131 247 1 0.769563 5.01701 3.53878
85 248 1 0.0522972 4.61021 4.21627
930 249 1 2.67388 3.7623 4.35908
573 250 1 2.34054 4.98762 4.5421
531 251 1 2.79737 4.63823 3.56971
1290 252 1 4.53786 3.66123 3.89418
970 253 1 3.52071 4.60522 4.6496
896 254 1 3.58423 3.9775 3.70022
936 255 1 4.61727 4.16472 4.79377
932 256 1 4.35209 4.87038 3.80038
1729 257 1 6.12581 3.48773 4.04538
1329 258 1 5.42027 4.22855 4.13847
892 259 1 6.56247 4.53491 4.58491
1371 260 1 5.66444 5.06743 4.71871
2126 261 1 8.3669 4.62302 4.58549
1332 262 2 7.57176 4.14695 5.01063
4012 262 3 7.92176 4.49695 5.36063
2130 263 1 7.25746 4.08398 3.88838
2092 264 1 8.34649 3.8846 3.7651
96 265 1 0.22752 5.71805 4.17312
134 266 2 1.41725 6.00722 4.29807
4013 266 3 1.7672499999999998 6.35722 4.64807
492 267 1 1.75055 5.36206 3.63399
571 268 1 2.44151 6.09145 4.5538
886 269 1 3.18332 5.4501 4.14736
963 270 1 2.8688 6.62068 3.83957
974 271 1 3.25606 6.48842 5.06801
576 272 1 3.80834 6.43726 4.22136
966 273 1 4.17035 5.40544 4.73032
1007 274 1 4.84749 5.9738 4.11518
1376 275 1 6.55419 5.67409 4.91733
1047 276 1 6.78622 6.36261 4.04083
1372 277 1 6.24187 5.36851 3.85345
607 278 1 5.79184 6.24623 4.66273
1005 279 1 5.85248 6.65394 3.70929
1731 280 1 7.37738 5.40771 4.21981
1412 281 1 7.91771 6.20664 3.69114
2174 282 1 7.56812 6.37114 4.82233
2166 283 1 8.18004 5.11366 3.60675
176 284 1 0.713692 7.08127 4.22046
212 285 1 0.797016 8.12725 4.37929
532 286 1 1.81245 6.831 3.53868
570 287 1 2.78259 7.46405 4.47004
574 288 1 2.15354 8.09673 4.98413
211 289 1 1.82096 7.92532 3.99409
613 290 1 3.33129 8.46469 4.01593
609 291 1 1.74684 6.96511 4.79127
1494 292 1 4.34193 8.33506 4.50947
610 293 1 3.50369 7.44126 3.6877
566 294 1 4.72378 6.97699 3.77933
1450 295 1 5.0073 7.43536 4.73513
1052 296 1 4.33143 7.99897 3.40994
1009 297 2 3.77378 7.60631 4.90402
4014 297 3 4.12378 7.956309999999999 5.25402
1413 298 1 5.94739 8.42952 5.09569
1008 299 1 5.49616 7.67794 3.68775
1811 300 1 6.47536 7.16391 4.75727
1403 301 1 6.72823 7.31097 3.52311
1406 302 1 6.89293 8.32936 4.51349
1776 303 2 7.68418 7.197 4.03522
4015 303 3 8.03418 7.547 4.3852199999999995
1415 304 1 7.62979 7.49182 5.05795
98 305 1 0.633298 1.69436 5.87003
410 306 1 0.83102 0.309015 6.15439
16 307 1 1.48352 1.23265 6.10348
849 308 1 1.90917 0.495076 5.36851
451 309 1 2.83649 0.786584 5.98749
460 310 1 2.44652 1.69943 6.39728
54 311 2 1.83488 0.33931 6.4519
4016 311 3 2.18488 0.68931 6.8019
454 312 1 3.69792 0.594675 5.19405
453 313 1 3.87328 0.601055 6.27163
1297 314 1 4.86746 1.14558 5.44823
1264 315 1 4.85857 1.01406 6.46674
499 316 1 3.99597 1.54816 6.74526
853 317 1 5.14456 0.131376 5.4478
1260 318 1 5.72679 0.21422 6.40174
1250 319 1 6.12054 0.978038 5.2603
899 320 2 5.80403 1.68461 6.59015
4017 320 3 6.15403 2.03461 6.94015
1657 321 1 7.25672 0.748205 6.46274
854 322 1 6.80147 0.0138696 5.85366
1295 323 1 6.86046 1.5516 5.83335
2099 324 1 8.16949 1.18261 6.29057
1210 325 1 7.93045 0.210169 5.75776
140 326 1 1.13984 3.05168 5.23636
94 327 1 0.167574 2.60692 5.54161
97 328 1 1.24151 2.60209 6.14371
101 329 1 0.290874 2.50698 6.64491
450 330 1 2.71003 1.75984 5.23301
497 331 1 2.33664 2.70424 5.9819
893 332 1 3.32406 2.74198 5.97834
850 333 1 3.84582 1.88675 5.13734
1291 334 1 4.30669 2.90006 5.33162
897 335 1 4.88108 2.07901 6.00081
1298 336 1 4.20972 2.80055 6.49969
1337 337 1 5.69671 3.15627 5.97632
895 338 1 5.87249 1.96558 5.49535
1655 339 1 6.72117 2.62741 5.87242
2057 340 1 8.46886 2.1005 5.74948
1654 341 1 7.58739 2.30258 5.24265
1336 342 1 7.61901 3.22136 5.78396
100 343 1 1.43838 3.49468 6.71517
133 344 1 0.122036 4.66437 5.49875
3739 345 1 0.375336 3.5793 6.1056
135 346 1 0.846755 4.49006 6.5051
494 347 1 1.07409 4.11465 5.5571
500 348 1 2.84323 3.64283 6.43002
537 349 1 1.99613 4.33112 6.28166
535 350 1 2.20463 3.68655 5.34287
939 351 1 3.01313 4.46014 5.73045
540 352 1 1.73764 4.91482 5.43331
1331 353 1 4.04684 4.6566 5.65098
1294 354 1 3.56393 3.63736 5.2717
937 355 2 5.08526 4.79588 5.70922
4018 355 3 5.4352599999999995 5.14588 6.05922
941 356 1 4.54677 4.84413 6.63526
935 357 1 4.75348 3.73643 5.96017
898 358 1 3.87875 3.97366 6.50783
927 359 1 5.81811 4.1732 5.19733
1369 360 1 6.78054 3.60597 5.36103
1292 361 2 6.32065 4.80446 6.02042
4019 361 3 6.670649999999999 5.154459999999999 6.370419999999999
1375 362 1 5.54787 4.24497 6.44373
1733 363 1 6.31338 3.42305 6.77652
2137 364 1 8.12507 3.90212 6.39031
1367 365 1 8.45007 3.715 5.25194
1334 366 1 7.20173 4.36635 6.03259
1744 367 1 8.49144 4.69934 5.78846
178 368 1 0.836284 6.13924 6.67163
933 369 1 0.946541 5.66089 5.59399
177 370 1 1.53201 5.38287 6.6473
3735 371 1 1.27199 6.59353 5.74663
173 372 1 0.326211 6.76409 5.16259
938 373 1 2.20154 6.188 5.52003
534 374 1 2.53701 5.32415 6.16404
575 375 1 3.06404 6.2727 6.29048
536 376 1 3.14525 5.41361 5.27912
584 377 1 2.11585 6.37189 6.70952
1774 378 1 5.05206 5.81715 5.22539
1330 379 1 4.37777 6.74547 5.15774
973 380 1 4.04892 5.94116 5.7471
979 381 1 4.82397 5.92784 6.47725
1384 382 1 6.5742 6.20567 6.7718
1769 383 1 5.95774 5.86862 5.98116
1011 384 1 5.20123 6.62278 5.75949
2170 385 1 7.85036 5.27903 5.17811
2211 386 1 7.35925 6.59398 6.14946
1780 387 1 6.97231 5.60498 5.88366
2173 388 1 7.82476 5.65211 6.6195
215 389 1 1.68774 8.43836 5.81025
175 390 1 1.00041 7.59512 5.33702
3893 391 1 0.204275 8.47118 5.16988
174 392 1 0.24744 7.06664 6.21164
251 393 1 0.16793 8.28944 6.21931
577 394 1 1.45865 7.3133 6.37237
619 395 1 2.29595 7.21448 5.73756
618 396 1 2.32551 8.09532 6.54054
580 397 2 3.12642 7.88694 5.69075
4020 397 3 3.47642 8.23694 6.04075
615 398 1 2.96119 7.33041 6.68594
1014 399 1 4.79699 7.23169 6.54735
1010 400 1 3.75455 7.00089 5.94391
1813 401 2 4.62845 8.28408 5.50821
4021 401 3 4.97845 8.634079999999999 5.85821
651 402 1 3.9793 7.95492 6.54473
1420 403 1 5.26658 8.41012 6.63511
1810 404 1 5.68024 7.81494 5.90752
1784 405 1 5.96512 7.31857 6.74814
972 406 1 6.31484 6.80271 5.86109
1456 407 1 6.90231 8.07613 5.53035
1770 408 1 8.10556 7.59235 6.04101
1416 409 1 7.01686 7.90156 6.65749
57 410 1 1.19125 0.576837 8.34623
64 411 1 0.293413 0.285813 7.86868
3701 412 1 0.667623 1.26864 7.78673
3696 413 1 1.12377 0.703343 7.13524
3656 414 1 2.0084 1.02145 7.44201
457 415 1 2.27989 0.603609 8.36183
459 416 1 2.92579 1.38168 7.19106
420 417 1 3.10878 0.0218737 8.20626
414 418 1 3.2224 0.222032 7.20429
857 419 1 4.24541 0.370503 7.34153
824 420 1 4.65539 0.955335 8.41943
901 421 1 3.54781 1.12497 7.97464
1300 422 1 6.66122 1.01484 7.37779
820 423 1 5.62325 0.942591 8.10079
1224 424 1 7.89975 1.16432 7.56967
1254 425 1 7.68685 0.20687 7.90522
501 426 1 0.754847 2.66709 7.58745
60 427 2 1.51844 2.03035 7.86479
4022 427 3 1.86844 2.38035 8.21479
99 428 1 1.14673 1.78361 6.84913
458 429 1 2.81051 2.1935 8.06039
3704 430 1 1.94115 2.50935 7.03534
902 431 1 3.01581 2.72363 7.07246
495 432 1 4.62387 2.0944 7.47289
900 433 1 3.81796 2.50384 7.9108
904 434 1 4.87446 3.00449 7.90953
1304 435 1 6.41309 2.57534 7.49286
1302 436 1 5.68479 1.8484 7.56966
1701 437 1 6.69449 1.85633 8.15598
1303 438 1 5.40836 2.63538 6.87881
1660 439 1 7.37548 1.98844 6.82199
1698 440 2 7.51025 2.46133 7.76267
4023 440 3 7.86025 2.81133 8.11267
2097 441 1 8.44265 2.45041 7.02719
1340 442 1 7.48162 2.99861 6.80212
138 443 1 0.358933 3.63074 7.29394
181 444 1 0.717603 5.0905 7.35833
104 445 1 1.25819 3.68493 7.92148
3743 446 1 0.53496 4.48681 8.24555
139 447 1 1.60065 4.91936 8.22621
102 448 1 1.7627 4.47463 7.27185
539 449 1 2.83873 4.27447 7.18629
503 450 1 2.39865 3.5775 7.92135
542 451 1 2.53117 4.58399 8.26244
894 452 1 4.7076 3.53007 7.01036
541 453 1 3.85726 4.00135 7.90985
944 454 1 4.39803 4.94373 8.39735
1777 455 1 4.85771 4.32989 7.66578
1338 456 1 5.76841 3.77232 7.97051
1737 457 1 6.77674 3.44694 8.1611
1344 458 1 6.22456 4.49144 7.196
1743 459 1 5.65083 4.91273 8.31256
1377 460 1 6.93839 4.67875 8.03271
1740 461 2 7.24437 3.95724 7.27702
4024 461 3 7.59437 4.30724 7.62702
2144 462 1 7.99551 3.64889 8.06392
2138 463 1 8.05605 4.73936 7.84193
179 464 1 1.33827 5.86478 7.58857
183 465 1 0.143626 6.02397 8.11648
3740 466 1 0.174324 6.68184 7.18703
144 467 1 2.45195 5.50735 7.33967
579 468 1 2.9156 6.5193 7.35358
184 469 1 2.09121 6.36647 8.13604
934 470 1 3.27119 5.15924 7.97083
1013 471 1 3.89076 6.37021 6.9451
977 472 1 3.89606 6.4243 8.09536
1373 473 1 4.43901 5.63921 7.55623
1374 474 1 4.74506 6.68995 7.5394
1381 475 1 4.94292 5.99719 8.48459
975 476 1 3.55605 5.13961 6.81579
1815 477 1 5.59658 6.39537 6.92292
1773 478 1 5.4131 5.28456 7.09245
971 479 1 6.50267 5.84259 7.8704
2177 480 1 6.82304 5.2489 7.01594
1779 481 1 7.73839 6.11748 7.60114
1738 482 1 6.8574 6.78408 8.20522
258 483 1 1.51985 8.36003 7.58697
3415 484 1 0.885919 6.93857 8.28326
219 485 1 0.785611 7.81438 7.05417
621 486 1 0.797972 8.02193 8.19176
180 487 1 1.67535 7.23754 7.44831
620 488 1 3.15766 8.24062 7.42641
611 489 1 2.58099 7.39155 7.93509
1050 490 1 3.60387 7.77715 8.34468
1419 491 1 4.53288 7.29056 8.34999
976 492 2 3.9863 7.31115 7.39678
4025 492 3 4.3363 7.661149999999999 7.746779999999999
1015 493 2 5.08893 7.69464 7.51522
4026 493 3 5.43893 8.04464 7.86522
1821 494 1 6.41327 8.16202 7.43716
980 495 1 5.85817 6.97623 7.78636
2577 496 1 8.10048 7.28997 7.82681
1451 497 1 7.11568 7.09457 7.18128
1781 498 1 7.33427 7.78724 8.33495
1819 499 1 7.88556 8.35009 7.47319
2215 500 1 8.15257 6.82897 6.82174
61 501 1 0.572506 0.28544 9.24196
3698 502 1 1.56366 1.34821 9.08432
62 503 1 0.337743 1.24719 8.75404
28 504 1 0.928564 0.682892 10.1225
864 505 1 2.65311 1.56388 8.80155
822 506 1 3.314 0.634452 9.05931
461 507 1 2.28938 0.621902 9.66141
463 508 1 3.35493 1.20642 9.98432
464 509 1 1.75441 1.35198 10.1472
903 510 1 4.26421 0.372633 9.55833
863 511 1 4.2511 1.35091 9.26863
1258 512 1 5.23828 0.934302 9.52106
1262 513 1 6.04219 1.11672 10.1065
1272 514 1 6.01766 1.50824 8.98846
2064 515 1 7.98802 1.10551 8.71706
1699 516 1 8.22961 0.999782 9.85383
1661 517 1 7.0188 0.651242 8.61796
827 518 1 7.3433 0.560474 9.71402
1299 519 1 7.1692 1.69189 9.17252
905 520 1 1.63171 2.37541 10.0978
63 521 1 0.371974 2.37785 8.56158
462 522 1 0.628073 1.97107 9.58956
68 523 1 1.44999 2.57071 9.03202
502 524 1 2.58621 2.75696 9.09642
858 525 1 2.67041 1.92537 9.80808
1342 526 1 3.33001 2.78078 10.0008
906 527 1 2.28591 3.37764 9.94318
1341 528 1 4.07106 3.22531 8.89672
859 529 1 3.53723 2.19777 8.82447
1308 530 1 4.2975 2.42574 9.56338
1223 531 1 4.88413 2.04691 8.53282
1333 532 1 5.0558 2.9194 9.0776
1702 533 2 6.01257 2.58435 8.59531
4027 533 3 6.36257 2.9343500000000002 8.94531
1703 534 1 5.61953 2.21321 9.58543
1741 535 1 6.48191 2.90119 9.65649
2107 536 1 6.76259 1.99414 10.115
1704 537 1 7.80489 2.11787 9.93431
2549 538 1 8.10802 3.16687 9.97081
2139 539 1 8.19964 2.55288 8.90931
107 540 1 1.31597 3.55149 9.64906
505 541 1 0.722644 3.58046 8.8572
3705 542 1 0.158139 3.83503 9.76309
143 543 1 0.859079 4.53059 9.39594
544 544 1 2.65018 4.3145 9.51442
507 545 1 3.18426 3.59931 8.66814
498 546 1 1.92434 4.01212 8.84701
940 547 1 5.07317 3.99294 8.73573
504 548 2 3.55908 3.80493 9.60853
4028 548 3 3.90908 4.15493 9.95853
1775 549 1 4.23763 4.59592 9.72779
1343 550 1 3.47392 4.61268 8.89353
948 551 1 4.55163 3.65464 10.0815
1307 552 1 5.53948 3.53586 10.0267
1694 553 2 6.0823 3.55566 8.98774
4029 553 3 6.4323 3.90566 9.33774
1745 554 1 5.7982 4.48425 9.59724
1707 555 1 6.59344 4.71052 9.00066
1668 556 1 6.70574 3.93202 9.82584
2542 557 1 8.43145 3.90161 9.2537
2145 558 1 7.37645 3.45875 9.02841
2147 559 1 7.82618 4.20177 10.134
1787 560 1 7.63784 4.41437 8.79974
1752 561 1 7.35266 5.03453 9.81044
182 562 1 1.03698 5.69901 8.74642
188 563 1 0.936746 5.41681 9.93285
221 564 1 0.621357 6.60829 9.45955
583 565 1 1.91122 6.29157 10.0842
581 566 1 2.61724 5.55128 8.60393
588 567 1 1.91965 6.67151 9.03764
548 568 1 1.83663 5.13348 9.29874
538 569 1 3.00644 5.49392 9.61411
982 570 1 3.16747 6.37359 8.76902
578 571 1 4.37946 6.63978 9.09481
981 572 1 3.98665 5.73263 8.95708
943 573 1 3.87723 5.93602 9.95122
978 574 1 5.12559 5.17793 9.21663
1339 575 1 6.18455 5.50829 9.53315
1382 576 2 5.30458 6.18606 9.60434
4030 576 3 5.654579999999999 6.53606 9.95434
1380 577 1 5.84254 6.50144 8.80783
1786 578 1 6.18927 6.58975 9.97054
1742 579 1 7.69794 5.46939 8.50338
1783 580 1 7.83877 6.50452 8.66781
1378 581 1 6.89574 5.98635 8.93967
1785 582 1 7.79571 6.25194 9.7409
582 583 1 1.23324 8.25431 9.14604
705 584 1 0.989028 8.34173 10.1155
3863 585 1 0.35268 7.6105 9.20593
259 586 1 1.39052 7.27738 9.83763
663 587 1 2.40083 8.41504 8.68578
1023 588 2 2.47604 7.26334 10.0766
4031 588 3 2.82604 7.61334 10.426599999999999
623 589 1 1.7979 7.58106 8.51874
1067 590 1 3.28511 8.12918 9.69947
1063 591 1 2.81981 7.43458 8.95849
1022 592 1 2.10288 8.22401 9.7346
1421 593 1 3.47359 6.97045 9.54922
1424 594 1 4.25689 7.86155 9.32684
1066 595 1 5.23406 8.48849 9.77373
1417 596 1 6.33208 7.56078 8.70641
1418 597 1 5.35174 8.09472 8.7185
1379 598 1 5.4588 7.35426 9.57054
1428 599 1 6.26386 8.45743 9.52805
2221 600 1 8.05113 7.54356 9.39744
1778 601 1 7.03086 7.11549 9.31182
467 602 1 1.595 0.762221 11.0697
72 603 1 0.439533 1.43328 11.6391
426 604 1 0.0220111 1.05051 10.6798
468 605 1 0.936623 1.58117 10.6991
465 606 1 0.767373 0.0976553 11.1754
3665 607 1 0.13875 0.066069 10.2557
466 608 1 2.62584 0.0760137 10.6847
869 609 1 2.76729 0.621177 11.5995
509 610 1 2.65463 1.48001 10.8452
872 611 1 1.85108 1.48926 11.786
1267 612 1 3.68506 0.546639 10.8985
1265 613 1 4.57537 0.221359 11.3611
1269 614 1 4.89156 1.6281 11.4387
1301 615 1 3.82103 1.54721 10.9907
1261 616 1 4.48112 1.16631 10.3705
1268 617 1 5.99253 0.781953 11.5955
1705 618 1 5.30761 0.688618 10.6269
2109 619 1 6.60137 1.65331 11.1304
1625 620 1 6.68155 0.208822 10.4896
1667 621 1 7.86877 0.343161 10.6816
1632 622 1 7.05247 0.540047 11.3574
1665 623 1 7.57586 1.35512 10.5884
1351 624 1 7.70354 1.40326 11.6864
2066 625 1 8.05494 0.249543 11.8508
909 626 1 0.677156 2.98323 10.2804
108 627 1 0.702368 2.58109 11.3647
907 628 1 1.63251 3.38942 10.8794
866 629 1 2.57021 2.60654 10.7134
865 630 1 1.70296 2.46876 11.3581
1347 631 1 2.86367 2.65959 11.8429
910 632 1 4.28111 2.38773 11.8404
1345 633 1 3.70671 2.69963 10.9811
1266 634 1 4.66135 2.32813 10.5742
1782 635 1 5.07852 3.37325 11.015
1306 636 1 5.59286 1.79813 10.6626
1710 637 1 5.99465 2.69088 10.5563
1756 638 1 6.08744 2.46358 11.7159
1751 639 1 6.67017 3.29204 11.6996
2101 640 1 7.52567 2.24668 11.0313
2106 641 1 7.02628 3.12846 10.6462
2112 642 1 8.16695 3.1976 11.1106
2509 643 1 8.49523 2.25077 11.5856
512 644 1 0.741828 3.66616 11.7615
545 645 1 0.562449 4.75917 11.774
547 646 1 0.726133 4.01953 10.7566
3708 647 1 0.127426 4.96297 10.6698
508 648 1 1.72675 4.43214 11.1896
1305 649 1 2.73995 3.65034 10.8049
908 650 1 2.68027 5.03733 10.5391
947 651 1 2.98337 4.82262 11.5993
148 652 1 1.77027 4.46394 10.2065
1352 653 1 4.0033 3.98169 10.9668
1708 654 1 5.06168 4.36991 10.5354
984 655 1 3.79268 5.00303 10.8715
1346 656 1 4.99816 4.23484 11.7489
1706 657 1 6.0192 4.8169 10.5916
1749 658 1 6.08606 3.77232 11.0045
2189 659 1 7.86218 4.16634 11.257
1750 660 1 7.10602 4.81869 10.8376
587 661 1 1.62996 5.27878 11.8038
625 662 1 0.959586 6.55131 10.5113
141 663 2 1.52075 5.37109 10.7492
4032 663 3 1.8707500000000001 5.721089999999999 11.0992
189 664 1 0.601732 5.70738 11.3969
592 665 1 2.3618 5.96169 11.0944
988 666 2 3.3486 6.77916 10.5767
4033 666 3 3.6986 7.12916 10.9267
543 667 1 3.37582 5.92683 11.1997
983 668 1 4.2935 5.45814 11.7779
1348 669 2 4.78337 5.48494 10.362
4034 669 3 5.133369999999999 5.83494 10.712
985 670 2 4.33982 6.25376 11.1333
4035 670 3 4.689819999999999 6.603759999999999 11.4833
987 671 1 5.30503 5.95926 11.3028
1746 672 1 6.70325 5.89428 11.812
2142 673 1 5.85304 5.82483 10.4857
1387 674 2 5.86088 5.11586 11.79
4036 674 3 6.2108799999999995 5.465859999999999 12.139999999999999
1389 675 1 5.96031 6.67095 11.8207
1789 676 1 7.61811 6.3466 11.3246
2187 677 1 7.90402 5.58746 10.6074
1792 678 1 7.63256 5.37271 11.881
2225 679 1 8.35402 6.64568 10.5774
1747 680 1 6.86225 5.87729 10.2585
986 681 2 1.54753 8.35272 11.8665
4037 681 3 1.8975300000000002 8.70272 12.2165
586 682 1 0.113962 7.18843 11.2397
227 683 1 1.12741 7.63311 11.1234
261 684 1 0.224475 7.40269 10.259
629 685 1 0.332205 8.23752 11.6952
1385 686 1 2.186 6.98502 11.0068
1425 687 1 2.73189 7.98454 10.647
1028 688 1 2.72487 7.48742 11.7575
661 689 1 1.87619 8.49055 10.8539
1388 690 1 4.19387 7.37544 11.3856
1433 691 1 4.04448 7.74933 10.4016
1470 692 1 5.05424 7.733 10.4381
627 693 1 3.50522 8.35389 11.3716
1426 694 1 4.73661 8.27924 11.2171
1017 695 1 4.53005 6.83579 10.2815
1826 696 1 6.35771 7.69371 10.2765
1383 697 1 6.668 6.81076 11.0911
1068 698 1 5.56003 6.88127 10.7153
1423 699 1 6.05959 7.7303 11.251
2226 700 1 8.01298 7.34525 11.366
1827 701 1 7.21102 7.9991 11.0259
2229 702 1 8.06521 8.43353 11.603
1828 703 1 7.47147 7.26247 10.3559
469 704 1 0.861557 0.649072 12.3121
3675 705 1 0.887706 0.36282 13.327
71 706 1 0.449681 1.43527 13.3426
911 707 1 2.10464 0.660813 13.3234
913 708 1 2.73429 1.60698 12.8316
871 709 1 3.11349 0.662978 12.5166
826 710 1 1.99184 0.633486 12.2836
956 711 1 3.16975 1.64341 11.9395
840 712 1 4.63223 0.751087 13.0695
835 713 1 3.47096 0.433468 13.378
1271 714 1 5.07605 0.776011 12.1335
867 715 1 4.01597 1.06968 11.9425
1277 716 1 3.67719 1.46527 13.2995
1273 717 1 5.71916 0.828865 13.2112
1672 718 1 6.49316 0.543711 12.4623
2105 719 1 5.76969 1.65718 12.1594
1666 720 1 6.78747 0.802955 13.5072
2070 721 1 7.66157 0.66336 12.6653
1226 722 1 6.824 1.39234 12.2659
949 723 2 1.67842 3.18574 12.111
4038 723 3 2.02842 3.53574 12.461
149 724 1 0.152327 2.3693 12.565
103 725 1 1.07684 2.02777 12.3522
513 726 1 0.9468 2.86501 13.0089
430 727 1 2.05687 2.33312 12.4685
912 728 1 2.99086 2.97225 12.8354
475 729 1 2.29588 2.09775 13.5318
916 730 1 4.54066 2.78945 13.0433
1709 731 1 4.70808 1.76896 12.5167
945 732 1 3.85775 3.38362 12.2351
1270 733 1 5.11886 3.03102 12.0032
1312 734 1 5.54232 2.57769 12.8518
1313 735 1 6.65955 1.85055 13.2783
1316 736 1 6.57502 2.82439 12.8081
1309 737 1 5.35738 1.7524 13.5401
1664 738 1 7.1159 2.27852 12.0643
2116 739 1 7.83639 3.05788 12.1061
1713 740 1 7.91574 2.21244 12.8639
1673 741 1 7.43087 2.98555 13.3096
2514 742 1 8.39938 3.17953 13.3217
553 743 1 0.288924 3.6867 12.9377
191 744 1 0.209107 4.91427 12.787
472 745 1 1.46686 4.30457 12.4416
506 746 1 1.49932 5.06453 13.0003
470 747 1 1.19206 4.10179 13.4837
552 748 1 2.62244 3.80162 11.9167
591 749 1 3.15167 4.23959 12.8616
989 750 1 2.44236 4.96394 12.6309
950 751 1 2.00639 3.6061 13.0205
953 752 1 4.35281 4.76129 13.5429
1350 753 1 4.6968 3.91729 13.0275
993 754 1 3.86787 4.57585 12.2309
1393 755 1 5.08978 4.86939 12.6847
951 756 1 6.38915 4.69838 12.7727
1793 757 1 5.97414 3.68517 12.4614
996 758 1 5.53498 5.08773 13.5932
1396 759 1 7.46829 4.70321 13.1928
1400 760 1 7.00289 4.38386 11.9589
2153 761 1 6.95858 3.84533 12.8895
2190 762 1 7.98326 4.13353 12.3582
589 763 1 0.889796 6.72535 12.0008
549 764 2 0.77051 5.76768 12.7194
4039 764 3 1.12051 6.11768 13.0694
1349 765 1 3.31544 5.11184 13.3717
555 766 1 2.70269 6.04354 13.3135
190 767 2 1.82575 6.54738 12.9241
4040 767 3 2.17575 6.89738 13.274099999999999
990 768 1 2.32141 6.31075 12.0833
942 769 1 3.14536 5.64845 12.3549
1394 770 1 4.91392 6.0371 13.4559
1430 771 2 3.81857 6.63241 12.0686
4041 771 3 4.16857 6.98241 12.4186
946 772 1 3.91585 5.88065 13.2261
1390 773 1 4.87522 6.06441 12.429
1395 774 1 5.98237 5.7753 12.7086
1833 775 1 7.3019 6.25201 13.5586
1392 776 1 7.14753 6.76855 12.2509
1829 777 1 8.02969 5.68569 13.005
1391 778 1 6.98067 5.46808 12.7666
3789 779 1 0.468516 6.85996 12.9161
3792 780 1 0.65508 7.85486 12.6735
231 781 1 1.37386 7.41685 13.5445
952 782 1 2.91578 6.97779 12.6471
1386 783 1 3.18762 8.18733 12.4516
630 784 1 1.79336 7.53198 12.5163
995 785 1 4.41543 6.94206 13.0051
1030 786 1 4.36267 7.83306 12.272
1429 787 1 4.88314 6.98727 11.9541
1029 788 1 3.80967 7.78539 13.2682
1027 789 1 5.71935 7.70052 12.2582
1435 790 1 6.60278 7.24247 13.1215
1431 791 2 5.5081 6.86409 12.8924
4042 791 3 5.858099999999999 7.21409 13.2424
1471 792 1 5.81842 7.76084 13.5439
1790 793 1 6.44605 8.39348 12.9329
1432 794 1 7.46216 8.02523 13.0407
1830 795 1 8.06121 6.8594 13.0639
992 796 1 6.82982 7.93086 12.0407
3636 797 1 1.08636 0.588074 14.962
3237 798 1 0.298235 0.617868 14.2204
870 799 1 1.35298 1.05926 13.9909
73 800 1 2.08791 0.46221 14.5666
474 801 1 1.80152 1.47928 14.9479
876 802 1 2.74979 1.08266 13.9717
1234 803 1 2.97173 0.725123 15.1602
874 804 1 4.54122 1.11625 14.0476
479 805 1 4.02027 0.309138 14.792
917 806 1 5.08074 0.742672 14.9263
480 807 1 3.83407 1.53652 14.9813
1275 808 1 5.78304 0.164214 14.276
1240 809 1 6.76208 0.770146 14.8236
1315 810 1 6.04404 1.32145 14.1566
1670 811 1 7.47637 1.45737 13.8196
2119 812 1 8.04302 0.443463 15.1871
1675 813 1 7.56617 1.51774 14.8485
1630 814 1 7.81034 0.348981 14.0588
69 815 1 0.183246 1.7286 14.6358
112 816 1 1.12677 3.02887 14.8588