Position Data

4187 atoms
187 bonds

3 atom types
1 bond types

0.00 17.0 xlo xhi
0.00 17.0 ylo yhi
0.00 17.0 zlo zhi

Atoms

1 0 1 1.26771 1.39249 1.48382
43 1 1 0.275355 1.47274 1.07635
39 2 1 0.153151 0.301987 0.944552
397 3 1 1.45521 0.963909 0.178223
404 4 1 1.61736 0.376134 1.18808
48 5 1 2.32365 0.0930448 0.225056
481 6 1 2.82163 0.511122 1.55399
442 7 1 2.52667 1.15678 0.122045
443 8 1 3.33281 0.457694 0.671324
848 9 1 3.16284 1.59854 1.34639
485 10 1 2.01957 1.59918 0.881336
1677 11 2 4.51886 1.14481 1.02819
4001 11 3 4.86886 1.4948100000000002 1.37819
878 12 1 3.66358 1.39494 0.130302
402 13 1 4.26509 0.063021 1.07666
519 14 1 4.55006 0.671832 0.0490386
1601 15 1 5.48173 1.17768 0.555839
1602 16 1 5.11003 0.490145 1.55641
1203 17 1 5.84773 0.257584 0.848493
1962 18 1 6.75113 0.803912 0.359654
1604 19 1 6.62903 0.819022 1.44273
1639 20 1 7.7716 0.832707 0.537536
2001 21 1 7.14286 0.0352552 1.04791
2004 22 1 8.56021 1.53754 1.09697
2042 23 1 9.58051 1.19767 0.174583
2444 24 1 9.48021 1.31286 1.58979
2445 25 1 10.2598 0.701507 1.06865
2881 26 1 11.3457 1.10694 1.37624
2842 27 1 10.927 0.868526 0.195916
2843 28 1 13.0425 0.296472 0.380967
2887 29 1 13.2701 1.28777 0.808464
3251 30 1 12.6279 0.0189303 1.4107
2847 31 1 12.473 0.99742 1.67108
3202 32 1 11.9225 0.601733 0.65058
3242 33 1 14.0377 0.484608 0.509407
3208 34 1 14.9845 0.734524 0.801878
3248 35 1 14.2209 1.34067 1.16402
3211 36 1 14.5366 0.159527 1.66634
3318 37 1 14.4788 1.32741 0.00596883
3243 38 1 15.5834 0.0276577 0.208045
3642 39 1 16.1485 0.823565 0.881991
3645 40 1 15.5063 1.07835 1.6656
118 41 1 1.03533 2.24058 0.816787
918 42 1 1.62483 3.38414 0.44733
526 43 1 0.995597 3.11783 1.34241
44 44 1 3.19355 2.60031 1.4579
517 45 1 2.94415 2.2128 0.437282
123 46 1 3.31957 3.16436 0.481748
486 47 2 2.16288 2.68718 1.4905
4002 47 3 2.51288 3.03718 1.8405
83 48 1 3.99055 3.27554 1.2407
2082 49 1 4.30619 2.18105 0.771342
882 50 1 4.8962 3.06164 0.767117
1641 51 1 6.51716 1.81836 1.34922
1284 52 1 5.55809 2.17769 0.419507
1274 53 1 5.87409 2.93006 1.39581
1280 54 1 6.48273 2.92089 0.581503
1638 55 1 5.2286 1.73682 1.55688
1241 56 1 6.55867 1.84107 0.259168
2078 57 1 7.48497 3.30027 0.789973
2077 58 1 7.5735 2.10451 0.700361
1643 59 1 7.02934 2.74392 1.6024
2088 60 1 8.38583 2.59261 1.25604
2081 61 1 8.46032 1.9525 0.0257186
2044 62 2 9.4798 2.30606 0.211618
4003 62 3 9.829799999999999 2.65606 0.561618
2882 63 1 9.80612 2.41481 1.39138
2125 64 1 8.66378 3.16844 0.0491128
2441 65 1 10.4078 1.96839 0.487705
2483 66 1 10.5417 2.97441 0.950982
2519 67 1 10.8898 1.99607 1.45042
3282 68 1 11.4377 1.82109 0.346008
3359 69 1 11.7579 2.81309 0.787252
3321 70 1 12.6139 1.95592 0.442954
2961 71 2 12.7751 2.95986 0.97582
4004 71 3 13.1251 3.30986 1.32582
2883 72 1 12.182 1.96103 1.33836
3278 73 1 13.6178 2.32872 0.723309
2844 74 1 13.8189 2.99326 1.62202
3283 75 1 15.2203 1.75908 0.767561
3721 76 1 14.4971 3.11322 0.813253
86 77 1 16.8522 2.54586 0.70524
125 78 1 15.8037 2.73822 1.54866
3723 79 1 16.1574 1.83915 1.08055
446 80 2 0.485796 3.50374 0.222612
4005 80 3 0.835796 3.85374 0.572612
164 81 1 1.43715 4.39031 0.0706981
165 82 1 0.322684 3.96687 1.13577
122 83 1 1.26511 4.42993 1.15462
3766 84 1 0.38618 5.01119 1.55754
482 85 1 2.591 3.91264 0.514553
521 86 1 2.02433 3.8832 1.69896
923 87 1 2.58856 4.96254 1.62192
523 88 2 3.24022 3.9747 1.564
4006 88 3 3.59022 4.3247 1.9140000000000001
484 89 1 3.29452 4.63692 0.327243
885 90 1 3.97479 4.92461 1.63704
1281 91 1 4.17377 4.17225 0.646187
883 92 1 4.69629 4.11407 1.52904
1404 93 1 5.7175 4.44432 1.07247
1324 94 1 5.19465 4.63282 0.159847
1317 95 1 5.73531 3.53956 0.16064
1321 96 1 6.96575 4.27928 0.817195
1680 97 1 8.02496 4.24955 0.259361
1684 98 1 7.89938 3.9386 1.63619
2012 99 1 9.05633 3.54158 0.939947
2526 100 1 9.00391 4.62515 1.15961
2488 101 1 10.1687 4.24855 0.780234
2446 102 2 9.92905 3.45458 1.67703
4007 102 3 10.27905 3.80458 2.02703
1718 103 1 9.11104 4.15329 0.00256801
1319 104 1 9.72155 5.03723 0.280778
2528 105 1 11.1369 3.92219 1.06949
2524 106 1 11.7544 4.81347 0.0564388
2639 107 1 11.0025 4.9234 0.83477
2522 108 1 12.0344 4.59348 1.11657
3354 109 1 12.1468 3.76111 0.386229
2922 110 1 13.0592 4.01928 0.983711
2997 111 1 12.8101 5.07466 0.265747
3327 112 1 13.0208 5.0226 1.66407
2448 113 1 12.1042 3.63284 1.53597
3681 114 1 14.0539 3.96929 1.25558
3762 115 1 14.5049 4.10721 0.246877
3398 116 2 13.7489 4.80114 0.499714
4008 116 3 14.0989 5.15114 0.849714
3362 117 1 14.8811 4.80965 1.14068
3356 118 1 13.6835 3.40336 0.175841
3724 119 1 15.4071 3.45921 0.418307
121 120 1 16.5866 4.35758 0.359686
3684 121 1 16.1863 3.70561 1.09986
126 122 1 15.5281 4.45304 0.393537
3363 123 1 16.1593 4.73014 1.24402
163 124 1 1.2096 6.6655 1.29869
3800 125 1 0.775561 6.38263 0.102572
565 126 1 1.04692 5.65251 0.871449
162 127 1 0.174973 6.62015 1.37386
961 128 1 1.71916 5.84327 0.0625719
128 129 1 2.06417 5.1306 0.695323
559 130 1 2.89309 5.68323 0.379373
524 131 1 2.18774 6.37727 0.965421
922 132 1 3.0368 5.98557 1.67259
562 133 1 4.22043 5.25162 0.560595
598 134 1 3.77432 6.30158 0.546388
1322 135 1 4.02055 6.36043 1.5735
1439 136 1 5.05795 5.45532 1.38384
884 137 1 6.48438 5.12088 1.1352
1804 138 1 5.9608 6.04273 1.46139
1802 139 1 5.61504 5.64451 0.42992
1363 140 1 6.77446 6.15508 0.688606
1364 141 1 5.16019 6.53838 0.892477
1479 142 1 5.95847 6.60735 0.219042
1722 143 1 7.22285 5.21782 0.433187
2161 144 1 8.2311 6.531 1.11321
1723 145 1 7.94605 5.18727 1.20389
1798 146 1 7.23095 5.91822 1.56033
2485 147 1 8.61033 5.33502 0.248195
2122 148 1 9.91094 5.2856 1.3341
2163 149 2 8.66428 5.66047 1.60618
4009 149 3 9.01428 6.01047 1.9561799999999998
2239 150 2 9.39141 6.14324 0.919706
4010 150 3 9.74141 6.493239999999999 1.269706
2124 151 1 10.9889 5.93431 1.09436
2558 152 1 10.3611 6.04961 0.1277
2600 153 1 11.7244 6.56018 0.484575
2964 154 1 11.9066 5.58095 0.938075
3328 155 1 12.8431 6.01023 1.53353
3002 156 1 12.8268 6.34044 0.562042
3364 157 1 13.7997 5.94989 1.06968
3400 158 1 14.5298 5.36432 0.127427
167 159 1 14.9541 6.16017 0.935583
3397 160 1 14.1744 6.35067 0.145593
3765 161 1 16.9085 5.76261 0.653209
3805 162 1 15.6398 5.50017 0.536101
241 163 1 16.0178 6.66538 0.764421
3367 164 1 15.9877 5.90841 1.52645
558 165 1 0.871009 7.45151 0.700238
245 166 1 1.40327 8.32901 0.337844
240 167 1 0.121194 8.28179 0.258225
602 168 1 1.724 8.00172 1.50524
601 169 1 3.12721 7.37763 0.0320227
280 170 1 1.84375 7.18204 0.283983
643 171 1 2.51187 7.93513 0.815919
561 172 1 3.07668 6.95826 1.20719
1039 173 1 4.46422 7.38925 1.57999
604 174 1 3.55439 8.03322 0.857261
924 175 1 4.20108 7.20166 0.446992
1083 176 1 4.68343 8.38227 1.46908
1079 177 1 6.22342 7.35088 1.27027
679 178 1 5.19717 7.57405 0.726904
1879 179 1 7.83139 7.00961 0.145237
1765 180 1 6.86615 7.34282 0.457947
1443 181 2 7.31426 7.29667 1.5997
4011 181 3 7.66426 7.646669999999999 1.9497
1042 182 1 6.85766 8.36255 0.442926
1842 183 1 7.9422 7.88641 0.928961
1764 184 1 9.10297 6.95659 0.300724
1844 185 1 9.57961 7.57041 1.04232
2164 186 1 10.1542 7.21757 0.276634
2602 187 1 9.96264 8.44887 1.50076
2241 188 1 10.1533 8.21796 0.279467
2201 189 1 10.343 6.87775 1.19195
2963 190 1 11.3974 7.11578 1.24368
2604 191 1 10.8858 8.0391 1.02913
2637 192 1 11.5832 7.77633 0.0873099
3008 193 1 12.9518 7.80126 0.672196
2608 194 1 12.4617 7.33167 1.41847
3368 195 1 12.814 8.32572 1.63729
3403 196 1 13.7341 7.06604 0.905157
3803 197 1 14.6165 7.48254 1.49232
3402 198 1 14.9992 7.10219 0.507373
3043 199 1 14.1928 7.83169 0.353156
3844 200 1 14.8167 8.4809 1.1696
3476 201 1 15.0704 8.14139 0.0062942
201 202 1 16.9432 7.67206 1.39907
3838 203 1 15.7309 7.85772 1.51066
3804 204 1 16.3573 7.61179 0.472033
202 205 1 0.724442 8.77306 1.14631
678 206 1 1.39975 10.029 1.57615
319 207 1 1.00364 9.60526 0.556863
3848 208 1 0.447979 9.60879 1.6679
208 209 1 2.01482 9.0108 0.891955
242 210 1 3.04362 9.59229 1.07396
1115 211 1 2.88901 8.87651 0.300117
719 212 1 2.16356 10.0024 0.772889
1117 213 1 4.05362 9.0054 0.895172
284 214 1 4.83938 9.62194 1.01081
1474 215 1 5.00846 8.54123 0.324796
1038 216 1 6.70684 9.53614 0.3855
644 217 1 5.89503 9.93274 1.34434
684 218 1 5.85027 10.0662 0.235825
1082 219 1 5.9015 8.85936 0.774816
1486 220 1 6.95983 9.97177 1.40601
1044 221 1 7.77446 8.91033 0.68416
1485 222 1 7.10924 8.69133 1.44037
1445 223 1 7.90179 9.54946 1.56216
1841 224 1 7.62024 10.0856 0.467781
1808 225 1 8.70799 8.76526 1.29589
2281 226 1 8.57416 9.69661 0.849163
2243 227 1 9.52094 9.45485 1.55597
2678 228 1 10.0095 9.31791 0.396792
2278 229 1 9.20637 8.66155 0.252897
2685 230 1 11.0193 9.07198 0.652401
2643 231 1 11.4714 9.84189 1.31756
3078 232 1 11.3645 9.94656 0.173313
2244 233 1 10.4755 10.1998 1.25312
3401 234 1 12.0095 8.55753 0.784099
3441 235 1 12.349 9.20012 1.64239
3406 236 1 13.4575 8.77634 0.979757
3079 237 1 13.399 9.85677 0.764694
3038 238 1 12.3583 9.70766 0.48532
3042 239 1 14.3034 9.17405 0.455315
3523 240 1 14.9343 10.0725 0.736089
3478 241 1 14.2686 9.34886 1.59856
3483 242 1 15.2747 9.154 0.000593029
3880 243 1 16.881 9.29448 0.502704
3845 244 1 16.0942 8.71879 0.651856
3842 245 1 16.0716 9.72185 1.05272
3768 246 1 16.7066 8.84825 1.50587
285 247 1 1.5341 11.6019 0.302575
3915 248 1 1.0569 10.7649 0.742616
3881 249 1 0.00858432 11.3093 0.672914
3919 250 1 0.167157 10.2863 0.523387
331 251 1 1.5721 11.849 1.41485
287 252 1 1.97213 10.8758 1.32705
720 253 1 2.9238 10.8207 1.01752
717 254 1 2.47368 11.0477 0.0691566
722 255 1 4.04868 10.393 1.02308
725 256 1 4.54787 10.3216 0.0698492
1122 257 1 3.74544 11.2394 1.68124
1128 258 1 3.64707 11.5419 0.649614
723 259 1 4.65335 11.7126 1.08249
1481 260 1 4.67717 11.6849 0.00106562
1442 261 1 6.572 10.6715 0.725534
1484 262 2 5.35267 10.7852 0.730025
4012 262 3 5.7026699999999995 11.1352 1.080025
1523 263 1 6.46897 11.7149 0.892658
1521 264 1 5.60552 11.3907 1.57305
1848 265 1 7.81492 10.8771 1.3793
1881 266 2 7.47598 11.4301 0.692622
4013 266 3 7.8259799999999995 11.7801 1.042622
1843 267 1 8.81367 10.4425 1.6937
1444 268 1 8.62841 11.5078 0.862302
2718 269 1 8.54994 10.6376 0.242106
2642 270 1 9.22565 11.3879 1.66064
2242 271 1 9.38816 10.6166 0.812816
1920 272 1 9.44002 11.2823 0.0613628
2719 273 1 10.4161 11.3566 1.01317
3118 274 1 11.5701 10.9256 1.25965
3082 275 1 11.3184 11.8625 1.57617
2681 276 1 10.291 10.3271 0.0883092
2755 277 1 11.1078 11.8572 0.418199
3075 278 1 12.164 10.9259 0.050755
3044 279 1 12.7285 10.7396 0.954555
3157 280 1 12.6354 11.8454 0.561408
3084 281 1 13.398 11.5916 1.16765
3119 282 1 13.8058 10.7473 0.610954
3045 283 1 14.3345 10.4511 1.43863
3528 284 1 14.9178 11.3684 0.308943
3525 285 1 14.5436 11.5173 1.65682
3448 286 1 15.7152 11.7365 0.873567
3888 287 1 16.6329 10.8483 1.64111
3886 288 1 15.8159 10.7332 0.653128
3047 289 1 15.415 10.6785 1.6473
286 290 1 0.579067 12.4303 0.782066
766 291 1 1.57001 12.6817 0.397335
325 292 1 0.837721 13.5406 0.759451
3968 293 1 1.20578 12.8527 1.48242
3846 294 1 0.03558 11.9033 1.61297
324 295 1 2.6732 11.9413 0.826222
763 296 1 2.34765 12.7753 1.69099
1562 297 2 3.45659 12.7407 0.924761
4014 297 3 3.80659 13.0907 1.274761
1563 298 1 4.56781 12.7044 0.687657
761 299 1 4.28289 13.515 0.232501
1159 300 1 5.51097 12.0019 0.559194
1561 301 1 6.0297 12.9616 0.509383
1161 302 1 6.65423 12.2771 0.0379929
1522 303 2 6.22467 13.4466 1.58681
4015 303 3 6.574669999999999 13.7966 1.93681
1922 304 1 5.37071 12.5112 1.38878
1921 305 1 7.0774 13.2903 0.685326
1882 306 1 7.43733 12.5683 1.42519
2360 307 1 8.07183 12.9024 0.577448
1448 308 1 8.61728 12.6036 1.49014
2684 309 1 9.60445 12.107 1.10284
2314 310 1 8.70132 12.2365 0.0981119
1959 311 2 9.36571 12.9863 0.603386
4016 311 3 9.71571 13.3363 0.953386
2759 312 1 10.1554 12.0546 0.0499731
2723 313 1 10.4988 12.8448 0.742217
3122 314 1 11.2941 13.072 1.58098
3121 315 1 11.6208 12.8315 0.522457
3088 316 1 13.5525 12.598 0.755409
3124 317 1 12.58 12.7665 1.01227
3926 318 1 14.6715 12.341 0.823317
3922 319 1 14.5896 13.4853 0.866097
3921 320 2 14.1904 12.8323 0.0396087
4017 320 3 14.5404 13.1823 0.3896087
3565 321 1 16.0152 12.6738 1.09449
3925 322 1 15.8876 13.3822 0.32636
3929 323 1 16.9587 13.1547 1.24934
3482 324 1 16.4203 12.2121 0.0829392
321 325 1 16.8873 13.3373 0.298984
401 326 1 1.27937 14.7838 0.252382
11 327 1 1.0827 14.367 1.35219
3568 328 1 0.0947761 14.9649 1.18143
764 329 1 2.99672 14.0145 0.605662
328 330 1 1.88126 13.9037 0.79558
767 331 1 1.87648 15.004 1.19381
798 332 1 2.18912 15.282 0.272963
765 333 1 3.12911 15.1862 1.42509
405 334 1 3.62356 15.0428 0.557538
803 335 1 4.09741 13.6757 1.19801
1163 336 1 4.62996 14.5307 0.977644
1199 337 1 5.27674 13.7349 1.33726
1923 338 1 6.52698 14.9557 0.978109
801 339 1 5.90815 14.2164 0.455267
1200 340 1 5.17803 15.0331 0.195609
1958 341 1 7.79267 13.957 0.222376
1928 342 1 7.93843 13.7389 1.32357
2721 343 1 8.39265 14.6752 0.781145
1965 344 1 7.54805 15.2386 1.06986
1968 345 1 7.0744 14.0389 1.67758
2318 346 1 10.1864 13.659 1.48869
1966 347 1 9.46072 14.716 1.05138
1924 348 1 8.89065 13.683 1.1301
2324 349 1 10.1811 14.7093 0.398217
2758 350 1 9.36753 13.9588 0.267949
2724 351 1 10.894 14.0708 0.780535
3168 352 1 11.797 14.6984 0.86656
3159 353 1 12.2389 13.7261 1.09896
3882 354 1 13.5753 14.1287 1.55333
3199 355 2 12.7973 14.8636 1.19856
4018 355 3 13.1473 15.2136 1.5485600000000002
3554 356 1 13.5732 13.6829 0.516477
3559 357 1 13.0103 14.5192 0.111032
3205 358 1 14.104 14.631 0.538755
3562 359 1 14.8623 15.1678 1.25454
2803 360 1 13.8072 15.215 1.37121
3962 361 2 15.3017 14.2782 0.568157
4019 361 3 15.6517 14.6282 0.918157
3965 362 1 15.685 13.9315 1.55921
3924 363 1 16.5597 14.1087 0.864687
362 364 1 16.0058 15.1373 0.968548
800 365 1 1.26586 16.7749 0.464571
8 366 1 0.684439 16.4544 1.49439
364 367 1 1.10538 15.6813 0.749213
3604 368 1 0.314413 16.416 0.288385
368 369 1 0.164805 15.3878 0.272813
3605 370 1 1.0041 15.3636 1.66191
807 371 1 2.26931 16.1983 0.966889
838 372 1 3.05467 15.975 0.283903
403 373 1 3.30761 16.4665 1.2023
843 374 1 5.0325 16.4728 0.545444
802 375 1 4.38203 15.7554 0.931366
804 376 1 3.98216 16.6326 0.131175
1605 377 1 5.54373 15.5475 1.07244
1598 378 1 6.43359 16.7344 0.128465
845 379 1 5.81551 16.4245 1.48633
1994 380 1 6.69358 16.0766 0.960672
1964 381 1 8.24108 15.5565 0.160804
2038 382 1 8.34433 16.9474 0.81034
1963 383 1 7.92407 16.3096 1.62667
2358 384 1 9.33768 15.3858 0.168023
2401 385 1 9.49685 16.3797 0.134153
2398 386 1 9.74799 15.8955 1.24863
2003 387 1 8.78415 15.8563 1.0279
2403 388 1 9.41763 16.9221 1.06725
3522 389 1 10.9059 15.5091 0.714115
2848 390 1 11.2543 16.9657 1.39377
2801 391 1 10.3615 16.636 0.59945
3207 392 1 11.6505 15.8815 1.66887
3572 393 1 13.5023 16.4375 0.786748
3164 394 1 12.0351 15.6747 0.563387
2809 395 1 12.6779 15.94 1.35391
3238 396 1 13.3064 15.4883 0.405607
2802 397 2 12.279 16.6198 0.169359
4020 397 3 12.629 16.969800000000003 0.519359
3203 398 1 14.3569 15.6362 0.387055
3609 399 1 14.6082 16.6266 0.724116
3201 400 1 15.4414 15.9015 0.608691
5 401 2 16.4419 16.1404 0.903603
4021 401 3 16.791900000000002 16.4904 1.253603
3648 402 1 15.6283 16.8836 1.47192
3603 403 1 15.7117 15.8681 1.64643
2 404 1 0.618564 0.440923 1.91128
406 405 1 0.837637 0.573097 2.99655
445 406 1 1.56905 0.733956 2.33499
3644 407 1 0.608282 1.43523 2.34568
881 408 1 2.15461 1.63923 1.96214
891 409 1 2.75343 1.05369 2.60583
483 410 1 3.99723 0.87452 1.97701
1285 411 1 3.82645 1.62814 2.80885
408 412 1 3.70575 0.67706 3.17331
448 413 1 4.86373 1.03879 2.58055
1242 414 1 5.87937 0.90023 2.15711
1248 415 1 6.06781 1.65184 2.92929
1646 416 1 6.32674 0.227246 3.2567
1683 417 1 7.60911 1.63887 1.73403
1612 418 1 7.43679 0.141271 2.45711
2085 419 1 7.8495 1.30408 2.72698
2049 420 1 6.84402 0.986384 2.46777
2002 421 1 8.40829 0.275276 2.86116
2008 422 1 8.64692 0.941332 2.07339
2045 423 1 8.68985 1.26317 3.21583
2043 424 1 9.5814 0.810679 2.57174
2449 425 1 10.0851 1.55138 3.13997
2884 426 1 10.4506 1.14509 2.07868
2404 427 2 10.2594 0.0907104 1.90513
4022 427 3 10.609399999999999 0.44071039999999995 2.25513
2766 428 1 10.2526 0.336539 3.31549
3245 429 1 11.5354 0.638107 2.33411
2047 430 1 10.9926 1.03204 3.15205
2849 431 1 12.3178 1.01744 3.26591
3249 432 1 13.4721 0.738932 1.73086
3250 433 1 12.5857 0.341009 2.48826
3693 434 1 13.5626 0.890638 3.00301
3649 435 1 13.931 0.0493836 2.44333
3289 436 1 14.7223 0.386665 3.29776
3247 437 1 14.6566 0.929837 2.47523
3678 438 1 16.5978 1.00929 1.73098
3608 439 1 16.7467 0.663667 2.78214
3246 440 2 15.7704 0.359484 2.45726
4023 440 3 16.1204 0.709484 2.8072600000000003
3683 441 1 15.6415 1.68345 2.5897
531 442 1 1.09015 2.25912 1.88959
3643 443 1 1.54774 1.76667 2.83057
82 444 1 0.70254 2.47506 2.92005
90 445 1 0.561192 3.2643 2.30545
87 446 1 3.0423 2.14017 2.29491
489 447 1 3.26551 3.16663 3.22089
496 448 1 1.74007 2.94335 2.38529
1282 449 1 4.76128 2.8245 1.75183
488 450 1 3.82928 2.98329 2.27022
1244 451 1 4.12921 1.98217 1.85895
1682 452 1 4.99311 2.28211 2.7117
1325 453 1 4.59859 3.3965 2.94456
1283 454 1 6.23049 2.63434 2.36337
1681 455 1 5.44355 3.39906 2.26256
1648 456 1 7.11703 1.99017 2.72684
2051 457 1 8.23132 2.15211 3.05677
1642 458 1 7.1277 3.15089 3.36947
2046 459 1 7.8052 2.72318 2.24216
2048 460 1 8.97073 1.95684 2.23583
2007 461 2 9.8756 2.60757 2.53737
4024 461 3 10.2256 2.95757 2.88737
2006 462 1 9.4102 2.26102 3.39231
2129 463 1 8.94602 3.17006 1.99697
2487 464 1 11.5118 2.73161 1.93065
2087 465 1 10.6558 3.31796 2.41406
2442 466 1 10.8783 2.09506 2.55093
2965 467 1 11.3521 2.96694 3.04376
2845 468 1 11.9979 2.05392 2.58664
2959 469 1 12.7041 2.64225 2.10649
2852 470 1 13.0226 1.83141 2.80394
3325 471 1 12.3211 2.8187 3.16113
2559 472 1 13.6355 1.97182 1.84365
3244 473 1 14.7373 2.0564 1.79499
2851 474 1 13.7834 2.84963 2.7265
3727 475 1 14.8023 3.12732 1.77595
3690 476 1 15.0202 2.52474 2.68824
3292 477 1 14.1709 1.89281 2.83047
493 478 1 16.5451 1.82123 3.00745
529 479 1 16.9592 2.31563 2.05241
3682 480 1 16.3391 3.29712 2.432
92 481 1 16.8101 2.93478 3.36737
127 482 1 1.64383 3.97731 2.6918
172 483 1 0.669312 4.34137 2.22053
532 484 1 0.92908 4.62415 3.37703
131 485 1 0.0298653 3.92911 3.08752
525 486 1 2.69675 3.95555 2.50809
492 487 1 2.85577 4.79568 3.34817
969 488 1 1.89488 5.01375 2.95761
527 489 1 3.94653 4.1041 2.55483
1721 490 1 4.88538 4.55212 2.60442
962 491 1 6.21476 4.32663 1.94955
928 492 2 5.83232 4.11499 3.01575
4025 492 3 6.18232 4.464989999999999 3.3657500000000002
1678 493 2 6.75428 3.55355 2.38851
4026 493 3 7.104279999999999 3.90355 2.73851
1323 494 1 6.54511 4.87027 2.81973
1318 495 1 7.14768 4.90568 1.97591
1727 496 1 7.90787 3.81767 2.81484
2127 497 1 8.28284 4.74076 2.11755
1728 498 1 8.79598 4.10085 3.18478
2089 499 1 9.77026 3.57302 2.92191
2925 500 1 9.5106 4.30142 2.1442
2567 501 1 10.5691 4.26703 3.06035
2565 502 1 10.599 4.31776 1.92872
2086 503 1 11.4739 3.85235 2.25676
2527 504 1 11.5212 4.80789 2.97007
2928 505 1 11.9812 3.99233 3.38223
2927 506 1 12.2835 4.58312 2.31711
3323 507 1 13.0074 4.98704 2.9226
2968 508 1 13.0581 3.764 2.36391
3725 509 1 14.6519 4.88927 2.77685
3290 510 1 14.1555 3.95108 2.3467
3324 511 1 14.0657 4.94586 1.8711
3685 512 1 15.0255 3.5493 3.039
3728 513 1 15.4339 3.94451 1.89636
129 514 1 16.4824 4.39346 2.17436
3722 515 1 15.952 4.03666 3.05342
3772 516 1 15.6129 5.08665 2.23654
522 517 1 0.830977 5.90844 1.91007
925 518 1 1.4871 5.20045 1.82159
132 519 1 0.17913 5.27888 2.68715
203 520 1 1.58545 6.48722 3.38748
609 521 1 0.857023 5.81248 3.14554
563 522 1 1.79307 6.10867 2.03736
963 523 1 2.41138 5.92963 3.0078
888 524 1 3.3292 5.17188 2.5043
607 525 1 3.38297 6.38066 2.60931
1401 526 1 4.50074 5.78321 2.26271
1005 527 1 5.09315 6.79171 3.28038
564 528 1 5.47415 6.32617 2.35044
1328 529 1 5.643 5.28683 3.0696
1326 530 1 5.93671 6.25916 3.3384
1726 531 1 6.31009 5.78527 2.42235
1767 532 1 7.16773 6.48737 3.31655
1762 533 2 7.93537 6.59181 2.1695
4027 533 3 8.28537 6.941809999999999 2.5195000000000003
2203 534 1 9.81975 6.3127 2.60649
2092 535 1 9.28988 5.18838 2.72181
2202 536 1 8.66526 6.13978 2.78098
1763 537 1 9.23619 6.67786 1.70571
2561 538 1 11.5483 5.11356 1.93246
1688 539 1 10.4033 5.47975 2.37071
2607 540 1 11.313 5.91432 3.00553
2564 541 1 10.7089 6.56723 2.06583
2605 542 1 11.7543 6.21809 1.90084
2208 543 1 10.4423 6.57589 3.38004
2563 544 1 12.2767 5.67245 2.61435
3049 545 1 13.3861 5.72391 2.34193
2611 546 1 12.6294 6.63495 2.3754
3322 547 1 13.9174 6.51556 1.89207
3007 548 2 14.7052 5.89414 2.34509
4028 548 3 15.0552 6.24414 2.69509
3365 549 1 14.0476 6.44811 3.03319
3371 550 1 15.6705 6.44012 2.59705
166 551 1 16.7818 6.29282 2.56123
238 552 1 1.23244 6.97799 2.39386
206 553 2 1.60006 7.85415 3.07148
4029 553 3 1.9500600000000001 8.20415 3.4214800000000003
3806 554 1 0.621397 8.35727 2.14918
3408 555 1 0.163449 7.62711 3.01928
605 556 1 2.24368 7.18383 1.83891
965 557 1 2.46726 6.93621 2.74416
568 558 1 3.34119 7.72491 2.01292
648 559 1 2.32918 8.31832 2.41112
687 560 1 3.53345 7.20938 3.23241
1002 561 1 4.29332 6.9558 2.54809
1045 562 1 4.65548 8.05537 2.47946
1403 563 1 6.3521 6.89471 2.33953
1362 564 1 5.43326 7.54393 2.05405
1008 565 1 5.71263 7.90955 3.0943
1438 566 1 6.54302 8.07986 2.12463
1805 567 1 6.87693 7.72801 3.03088
2162 568 1 7.80516 7.61388 2.50905
1845 569 1 8.54241 7.60744 1.76446
2168 570 1 9.89428 7.47877 3.36697
2562 571 1 9.75322 7.64511 2.13489
2212 572 1 9.15499 6.80417 3.26715
2245 573 1 8.81925 7.61587 2.74684
2606 574 1 10.0998 8.41243 2.86939
2648 575 1 11.7834 8.2257 1.71959
2603 576 2 10.7846 7.63542 1.92152
4030 576 3 11.134599999999999 7.9854199999999995 2.2715199999999998
2612 577 1 11.5349 6.96157 2.53306
2966 578 1 11.2369 8.48095 2.73002
2248 579 1 10.8871 7.57007 3.2277
3006 580 1 12.4533 7.7295 2.459
3003 581 1 13.4016 7.49714 1.7866
3411 582 1 13.1403 7.05752 3.14665
3843 583 1 13.3038 8.2982 2.60425
3443 584 1 14.0415 8.40093 1.87699
3487 585 1 15.1419 7.78373 2.36112
3407 586 1 14.0518 7.50079 2.57881
3409 587 1 15.147 7.22877 3.3337
3405 588 2 15.3489 6.85563 1.71168
4031 588 3 15.6989 7.205629999999999 2.06168
3807 589 1 16.3461 7.16507 2.2613
3809 590 1 16.2461 7.30806 3.3058
3447 591 1 16.2092 8.29012 2.37241
3887 592 1 0.39782 9.11793 2.84816
246 593 1 1.39722 9.17853 2.18288
685 594 1 1.62001 8.84604 3.38584
1081 595 1 3.21008 8.89337 1.87559
1085 596 1 2.462 9.56833 2.1317
688 597 1 2.65601 9.0931 3.17085
283 598 1 3.58561 9.65367 2.79102
603 599 1 3.77035 8.50549 2.67999
1041 600 1 4.30727 9.28669 1.96358
1088 601 1 4.91856 8.875 3.04244
1012 602 1 5.47226 8.84295 1.80472
1043 603 1 6.64977 9.27577 2.24438
683 604 1 5.20193 9.91113 2.30572
1089 605 1 6.66114 9.871 3.08265
1048 606 1 6.06499 8.97014 3.16146
1405 607 1 7.27259 8.72051 2.97993
1408 608 1 7.55723 9.71728 2.74217
1803 609 1 8.15388 8.54325 2.21441
2645 610 1 9.1688 8.58487 2.18326
1887 611 1 8.56927 9.53302 2.58572
2288 612 1 9.62522 9.7587 3.20755
2283 613 1 10.1521 10.1152 2.27807
2289 614 1 9.0501 8.85295 3.33625
3085 615 1 10.7451 9.23285 1.7683
2683 616 1 10.6767 9.48 2.95637
2647 617 1 11.4634 10.0183 3.37275
3048 618 1 11.7068 9.53332 2.39882
3446 619 1 13.3819 9.36624 2.09935
2652 620 1 12.3303 8.68293 2.83985
3046 621 1 12.6494 9.67999 2.90824
3445 622 1 13.5494 9.00573 3.38525
3485 623 1 14.4056 9.07951 2.75273
3051 624 1 14.1445 10.0996 2.6566
3808 625 1 15.4512 9.13674 1.74716
3529 626 1 15.5313 9.94896 2.57402
3892 627 1 16.431 9.73874 2.10198
291 628 1 16.2521 9.35277 3.10164
248 629 1 1.24104 10.327 2.91768
282 630 1 0.68871 11.0091 1.78481
323 631 1 0.211225 11.3897 2.6489
642 632 1 1.40658 11.4363 2.92617
290 633 1 0.253385 10.2434 2.53797
288 634 1 2.53133 11.6265 1.78021
3884 635 1 2.35879 11.0185 2.62152
327 636 1 2.98905 10.4575 2.03239
332 637 1 3.42786 11.3583 2.71379
682 638 1 4.73674 10.7367 1.81227
1165 639 1 4.38391 10.5388 2.84585
1121 640 1 6.25881 10.4817 2.17139
1488 641 1 5.12225 11.2046 2.66643
1092 642 1 6.38767 11.1624 3.15266
1482 643 1 6.92727 11.4761 1.88358
1483 644 1 7.49515 10.6956 2.47757
1487 645 1 8.32341 10.7467 3.10353
1925 646 1 8.16162 11.4851 2.23729
1885 647 1 9.43722 11.0352 2.68211
1883 648 1 8.67965 11.6909 3.08201
2682 649 1 10.1873 11.3532 2.00432
3081 650 1 11.0802 10.7962 2.22025
2246 651 1 10.4949 10.5371 3.18852
1886 652 1 10.6614 11.7043 2.76413
2688 653 1 11.8113 11.5933 2.57618
3083 654 1 12.4699 11.342 1.78537
3442 655 1 12.1238 10.4959 2.3574
3092 656 1 13.3422 10.4376 1.70765
3050 657 1 13.3986 10.3707 3.35467
3090 658 1 13.4016 11.431 3.33851
3086 659 1 15.0177 11.0984 2.61136
3127 660 1 13.638 11.2546 2.41327
3883 661 1 16.2521 10.6785 2.68932
3492 662 1 15.7724 11.8162 1.9996
3491 663 2 16.4626 11.5222 3.35961
4032 663 3 16.8126 11.8722 3.70961
326 664 1 0.844819 12.187 2.29407
329 665 1 1.58257 12.5329 3.15691
3932 666 2 0.248489 13.0174 3.00564
4033 666 3 0.5984889999999999 13.3674 3.35564
365 667 1 2.43189 12.256 2.64672
690 668 1 2.62231 13.3442 2.90963
726 669 2 3.25993 13.3027 1.98885
4034 669 3 3.6099300000000003 13.6527 2.33885
1129 670 2 4.44257 11.9873 2.09866
4035 670 3 4.7925699999999996 12.337299999999999 2.4486600000000003
1569 671 1 3.44881 12.7967 3.02342
1168 672 1 4.63573 12.483 3.06168
728 673 1 3.4136 12.2039 1.91403
1166 674 2 4.57866 13.0122 1.95952
4036 674 3 4.92866 13.3622 2.30952
771 675 1 4.34538 13.4645 2.84937
1529 676 1 6.204 12.3578 1.88514
1491 677 1 6.12592 12.3276 2.95509
1208 678 1 5.50139 13.1491 2.371
1090 679 1 5.81651 13.3853 3.31392
2321 680 1 6.81396 13.0452 2.52373
1526 681 2 7.55952 12.2422 2.38966
4037 681 3 7.90952 12.5922 2.73966
1892 682 1 7.21154 12.6598 3.39287
2285 683 1 9.54885 12.1455 2.50401
2329 684 1 8.60526 12.6798 2.56909
2284 685 1 9.50168 12.9667 1.89429
2328 686 1 9.8445 13.2788 2.83559
2725 687 1 10.4382 12.4029 1.82082
2727 688 1 11.1963 12.5152 2.61302
2732 689 1 11.3503 13.4235 3.16813
2644 690 1 12.8073 11.9034 2.65368
2287 691 1 12.2299 12.8504 3.06595
2687 692 1 12.1294 12.5507 1.9162
3521 693 1 13.5546 12.2751 1.86391
2690 694 1 13.041 13.2946 2.09005
3527 695 1 15.1561 12.5203 1.70971
3566 696 1 13.6235 12.9461 2.87978
3132 697 1 14.6458 12.1283 2.63635
3167 698 1 14.1021 13.0786 1.70089
3930 699 1 15.1581 13.434 2.41343
3526 700 1 16.3079 13.1234 2.09423
3928 701 1 16.6292 12.2659 2.60726
3531 702 1 15.6547 12.5596 2.79852
3967 703 1 16.0601 13.5735 3.01909
3891 704 1 0.507459 13.7422 1.92261
367 705 1 1.34501 14.6018 2.34421
49 706 1 1.34936 14.9005 3.35721
369 707 1 1.09395 13.7944 3.07701
3607 708 1 0.312179 14.902 2.30822
3969 709 1 0.26668 15.2864 3.28074
769 710 1 1.77369 13.7275 2.14832
3611 711 1 2.30145 15.1911 2.16646
768 712 1 2.72663 14.25 1.81062
772 713 1 2.98154 15.1363 3.06294
730 714 1 2.13668 14.2878 2.96523
372 715 1 3.45705 14.0211 2.70485
1206 716 1 4.76843 14.266 2.11587
805 717 1 3.77263 14.4916 1.76097
1566 718 1 4.17801 14.8738 2.72101
842 719 1 4.96629 15.2019 1.80873
808 720 1 5.90767 14.5042 1.77767
1205 721 1 5.35573 14.9349 2.87032
1972 722 1 6.2318 13.9568 2.57131
1976 723 2 6.534 14.9911 3.04554
4038 723 3 6.8839999999999995 15.341099999999999 3.39554
1528 724 1 7.68295 13.672 2.66892
1961 725 1 7.38742 15.0933 2.13249
2369 726 1 8.40591 14.6322 2.80253
1967 727 1 7.54133 15.2342 3.34231
1603 728 1 8.73898 14.7065 1.78301
2722 729 1 9.78676 14.161 2.32404
2763 730 1 8.78761 13.8204 2.26613
2762 731 1 9.59967 14.5314 3.3606
3161 732 1 10.3469 15.0297 1.8685
3123 733 1 10.9441 14.0016 2.22543
3171 734 1 11.8088 14.7119 1.90498
2726 735 1 10.5 14.6942 2.82702
3126 736 1 11.836 14.6381 2.92718
3089 737 1 11.9227 13.6473 2.27934
3128 738 1 12.7246 14.2637 2.2851
3172 739 1 13.5519 14.9498 2.32115
3129 740 1 12.5647 13.8627 3.25912
3569 741 1 13.039 14.8656 3.20776
3163 742 1 13.7819 13.9172 2.62815
3563 743 1 15.1499 14.5001 2.7831
3212 744 1 14.6224 14.3103 1.87888
3567 745 1 15.687 14.9421 2.04545
3532 746 1 16.592 14.103 2.17355
3970 747 1 15.9492 14.7256 3.37566
3931 748 1 16.978 14.2503 3.10511
7 749 1 1.66383 16.2779 1.77556
45 750 1 0.297231 16.5085 2.57127
366 751 1 1.39492 16.7396 2.56662
6 752 1 0.997612 15.7631 2.70163
452 753 1 2.42103 16.9781 2.66075
407 754 1 2.83385 16.0621 1.97231
449 755 1 2.16991 15.9897 2.83316
1212 756 1 3.3568 16.0688 3.00992
889 757 1 3.51518 16.9262 2.40066
447 758 1 4.46809 16.5354 1.89052
3 759 1 3.8823 15.6475 2.12737
1207 760 1 4.42194 16.7415 3.03582
1606 761 1 4.93747 15.9262 2.605
1245 762 1 5.44272 16.9026 2.47835
1568 763 1 5.84991 15.6399 2.22001
1202 764 2 6.39718 16.8967 2.19424
4039 764 3 6.747179999999999 17.2467 2.5442400000000003
1243 765 1 6.32822 16.0405 3.09552
1564 766 1 7.00063 16.1108 2.01151
1647 767 2 7.49352 16.3549 3.13024
4040 767 3 7.84352 16.704900000000002 3.4802400000000002
2363 768 1 8.30991 16.0247 2.54401
2359 769 1 9.25308 15.6446 2.30223
2362 770 1 9.15003 16.928 2.19565
2372 771 2 9.26988 16.5654 3.18703
4041 771 3 9.61988 16.9154 3.53703
3281 772 1 11.2299 16.9969 3.22667
3198 773 1 10.5547 16.095 1.85271
2728 774 1 11.2408 15.5611 2.68776
2402 775 1 10.2618 15.8125 3.09342
3165 776 1 11.9486 16.5513 2.48387
2807 777 1 12.4123 15.4547 2.3464
3571 778 1 13.0671 16.3068 2.40992
3210 779 1 13.3157 16.9186 3.28048
3602 780 1 14.0472 16.175 1.73478
3966 781 1 14.6753 15.3194 2.31942
3576 782 1 14.9869 15.7418 3.28609
2812 783 1 14.0079 15.9147 2.83297
3646 784 1 14.8293 16.5655 2.66792
3279 785 1 16.6515 16.8465 1.86251
3606 786 1 16.9563 15.8262 1.87584
3612 787 1 16.0166 15.5771 2.74383
10 788 1 15.6626 16.7975 3.37477
88 789 1 0.452822 1.46024 3.4189
412 790 1 0.994275 0.557143 4.22416
52 791 2 1.38056 1.51341 3.84121
4042 791 3 1.73056 1.86341 4.19121
56 792 1 0.138917 1.68319 4.46968
456 793 1 1.38825 1.44159 4.88149
850 794 1 1.82815 0.601221 3.54508
409 795 1 1.99699 0.516521 4.7067
846 796 1 2.86071 0.429029 3.87966
893 797 1 2.5328 1.43202 4.95735
1293 798 1 3.59909 1.52998 3.96937
887 799 1 4.29832 0.566211 4.04234
1246 800 1 4.54461 1.24275 4.78597
1287 801 1 4.84985 1.49895 3.62899
487 802 1 5.33233 0.577444 3.71212
1645 803 1 5.94783 0.0564002 4.28847
1685 804 1 5.97212 1.23747 4.00717
1252 805 1 6.13396 1.13832 5.04092