Position Data

4000 atoms
1 atom types

0.00 17.00 xlo xhi
0.00 17.00 ylo yhi
0.00 17.00 zlo zhi

Atoms

1 1 0.0 0.0 0.0
2 1 0.0 0.85 0.85
3 1 0.85 0.0 0.85
4 1 0.85 0.85 0.0
5 1 0.0 0.0 1.7
6 1 0.0 0.85 2.55
7 1 0.85 0.0 2.55
8 1 0.85 0.85 1.7
9 1 0.0 0.0 3.4
10 1 0.0 0.85 4.25
11 1 0.85 0.0 4.25
12 1 0.85 0.85 3.4
13 1 0.0 0.0 5.1
14 1 0.0 0.85 5.949999999999999
15 1 0.85 0.0 5.949999999999999
16 1 0.85 0.85 5.1
17 1 0.0 0.0 6.8
18 1 0.0 0.85 7.6499999999999995
19 1 0.85 0.0 7.6499999999999995
20 1 0.85 0.85 6.8
21 1 0.0 0.0 8.5
22 1 0.0 0.85 9.35
23 1 0.85 0.0 9.35
24 1 0.85 0.85 8.5
25 1 0.0 0.0 10.2
26 1 0.0 0.85 11.049999999999999
27 1 0.85 0.0 11.049999999999999
28 1 0.85 0.85 10.2
29 1 0.0 0.0 11.9
30 1 0.0 0.85 12.75
31 1 0.85 0.0 12.75
32 1 0.85 0.85 11.9
33 1 0.0 0.0 13.6
34 1 0.0 0.85 14.45
35 1 0.85 0.0 14.45
36 1 0.85 0.85 13.6
37 1 0.0 0.0 15.299999999999999
38 1 0.0 0.85 16.15
39 1 0.85 0.0 16.15
40 1 0.85 0.85 15.299999999999999
41 1 0.0 1.7 0.0
42 1 0.0 2.55 0.85
43 1 0.85 1.7 0.85
44 1 0.85 2.55 0.0
45 1 0.0 1.7 1.7
46 1 0.0 2.55 2.55
47 1 0.85 1.7 2.55
48 1 0.85 2.55 1.7
49 1 0.0 1.7 3.4
50 1 0.0 2.55 4.25
51 1 0.85 1.7 4.25
52 1 0.85 2.55 3.4
53 1 0.0 1.7 5.1
54 1 0.0 2.55 5.949999999999999
55 1 0.85 1.7 5.949999999999999
56 1 0.85 2.55 5.1
57 1 0.0 1.7 6.8
58 1 0.0 2.55 7.6499999999999995
59 1 0.85 1.7 7.6499999999999995
60 1 0.85 2.55 6.8
61 1 0.0 1.7 8.5
62 1 0.0 2.55 9.35
63 1 0.85 1.7 9.35
64 1 0.85 2.55 8.5
65 1 0.0 1.7 10.2
66 1 0.0 2.55 11.049999999999999
67 1 0.85 1.7 11.049999999999999
68 1 0.85 2.55 10.2
69 1 0.0 1.7 11.9
70 1 0.0 2.55 12.75
71 1 0.85 1.7 12.75
72 1 0.85 2.55 11.9
73 1 0.0 1.7 13.6
74 1 0.0 2.55 14.45
75 1 0.85 1.7 14.45
76 1 0.85 2.55 13.6
77 1 0.0 1.7 15.299999999999999
78 1 0.0 2.55 16.15
79 1 0.85 1.7 16.15
80 1 0.85 2.55 15.299999999999999
81 1 0.0 3.4 0.0
82 1 0.0 4.25 0.85
83 1 0.85 3.4 0.85
84 1 0.85 4.25 0.0
85 1 0.0 3.4 1.7
86 1 0.0 4.25 2.55
87 1 0.85 3.4 2.55
88 1 0.85 4.25 1.7
89 1 0.0 3.4 3.4
90 1 0.0 4.25 4.25
91 1 0.85 3.4 4.25
92 1 0.85 4.25 3.4
93 1 0.0 3.4 5.1
94 1 0.0 4.25 5.949999999999999
95 1 0.85 3.4 5.949999999999999
96 1 0.85 4.25 5.1
97 1 0.0 3.4 6.8
98 1 0.0 4.25 7.6499999999999995
99 1 0.85 3.4 7.6499999999999995
100 1 0.85 4.25 6.8
101 1 0.0 3.4 8.5
102 1 0.0 4.25 9.35
103 1 0.85 3.4 9.35
104 1 0.85 4.25 8.5
105 1 0.0 3.4 10.2
106 1 0.0 4.25 11.049999999999999
107 1 0.85 3.4 11.049999999999999
108 1 0.85 4.25 10.2
109 1 0.0 3.4 11.9
110 1 0.0 4.25 12.75
111 1 0.85 3.4 12.75
112 1 0.85 4.25 11.9
113 1 0.0 3.4 13.6
114 1 0.0 4.25 14.45
115 1 0.85 3.4 14.45
116 1 0.85 4.25 13.6
117 1 0.0 3.4 15.299999999999999
118 1 0.0 4.25 16.15
119 1 0.85 3.4 16.15
120 1 0.85 4.25 15.299999999999999
121 1 0.0 5.1 0.0
122 1 0.0 5.949999999999999 0.85
123 1 0.85 5.1 0.85
124 1 0.85 5.949999999999999 0.0
125 1 0.0 5.1 1.7
126 1 0.0 5.949999999999999 2.55
127 1 0.85 5.1 2.55
128 1 0.85 5.949999999999999 1.7
129 1 0.0 5.1 3.4
130 1 0.0 5.949999999999999 4.25
131 1 0.85 5.1 4.25
132 1 0.85 5.949999999999999 3.4
133 1 0.0 5.1 5.1
134 1 0.0 5.949999999999999 5.949999999999999
135 1 0.85 5.1 5.949999999999999
136 1 0.85 5.949999999999999 5.1
137 1 0.0 5.1 6.8
138 1 0.0 5.949999999999999 7.6499999999999995
139 1 0.85 5.1 7.6499999999999995
140 1 0.85 5.949999999999999 6.8
141 1 0.0 5.1 8.5
142 1 0.0 5.949999999999999 9.35
143 1 0.85 5.1 9.35
144 1 0.85 5.949999999999999 8.5
145 1 0.0 5.1 10.2
146 1 0.0 5.949999999999999 11.049999999999999
147 1 0.85 5.1 11.049999999999999
148 1 0.85 5.949999999999999 10.2
149 1 0.0 5.1 11.9
150 1 0.0 5.949999999999999 12.75
151 1 0.85 5.1 12.75
152 1 0.85 5.949999999999999 11.9
153 1 0.0 5.1 13.6
154 1 0.0 5.949999999999999 14.45
155 1 0.85 5.1 14.45
156 1 0.85 5.949999999999999 13.6
157 1 0.0 5.1 15.299999999999999
158 1 0.0 5.949999999999999 16.15
159 1 0.85 5.1 16.15
160 1 0.85 5.949999999999999 15.299999999999999
161 1 0.0 6.8 0.0
162 1 0.0 7.6499999999999995 0.85
163 1 0.85 6.8 0.85
164 1 0.85 7.6499999999999995 0.0
165 1 0.0 6.8 1.7
166 1 0.0 7.6499999999999995 2.55
167 1 0.85 6.8 2.55
168 1 0.85 7.6499999999999995 1.7
169 1 0.0 6.8 3.4
170 1 0.0 7.6499999999999995 4.25
171 1 0.85 6.8 4.25
172 1 0.85 7.6499999999999995 3.4
173 1 0.0 6.8 5.1
174 1 0.0 7.6499999999999995 5.949999999999999
175 1 0.85 6.8 5.949999999999999
176 1 0.85 7.6499999999999995 5.1
177 1 0.0 6.8 6.8
178 1 0.0 7.6499999999999995 7.6499999999999995
179 1 0.85 6.8 7.6499999999999995
180 1 0.85 7.6499999999999995 6.8
181 1 0.0 6.8 8.5
182 1 0.0 7.6499999999999995 9.35
183 1 0.85 6.8 9.35
184 1 0.85 7.6499999999999995 8.5
185 1 0.0 6.8 10.2
186 1 0.0 7.6499999999999995 11.049999999999999
187 1 0.85 6.8 11.049999999999999
188 1 0.85 7.6499999999999995 10.2
189 1 0.0 6.8 11.9
190 1 0.0 7.6499999999999995 12.75
191 1 0.85 6.8 12.75
192 1 0.85 7.6499999999999995 11.9
193 1 0.0 6.8 13.6
194 1 0.0 7.6499999999999995 14.45
195 1 0.85 6.8 14.45
196 1 0.85 7.6499999999999995 13.6
197 1 0.0 6.8 15.299999999999999
198 1 0.0 7.6499999999999995 16.15
199 1 0.85 6.8 16.15
200 1 0.85 7.6499999999999995 15.299999999999999
201 1 0.0 8.5 0.0
202 1 0.0 9.35 0.85
203 1 0.85 8.5 0.85
204 1 0.85 9.35 0.0
205 1 0.0 8.5 1.7
206 1 0.0 9.35 2.55
207 1 0.85 8.5 2.55
208 1 0.85 9.35 1.7
209 1 0.0 8.5 3.4
210 1 0.0 9.35 4.25
211 1 0.85 8.5 4.25
212 1 0.85 9.35 3.4
213 1 0.0 8.5 5.1
214 1 0.0 9.35 5.949999999999999
215 1 0.85 8.5 5.949999999999999
216 1 0.85 9.35 5.1
217 1 0.0 8.5 6.8
218 1 0.0 9.35 7.6499999999999995
219 1 0.85 8.5 7.6499999999999995
220 1 0.85 9.35 6.8
221 1 0.0 8.5 8.5
222 1 0.0 9.35 9.35
223 1 0.85 8.5 9.35
224 1 0.85 9.35 8.5
225 1 0.0 8.5 10.2
226 1 0.0 9.35 11.049999999999999
227 1 0.85 8.5 11.049999999999999
228 1 0.85 9.35 10.2
229 1 0.0 8.5 11.9
230 1 0.0 9.35 12.75
231 1 0.85 8.5 12.75
232 1 0.85 9.35 11.9
233 1 0.0 8.5 13.6
234 1 0.0 9.35 14.45
235 1 0.85 8.5 14.45
236 1 0.85 9.35 13.6
237 1 0.0 8.5 15.299999999999999
238 1 0.0 9.35 16.15
239 1 0.85 8.5 16.15
240 1 0.85 9.35 15.299999999999999
241 1 0.0 10.2 0.0
242 1 0.0 11.049999999999999 0.85
243 1 0.85 10.2 0.85
244 1 0.85 11.049999999999999 0.0
245 1 0.0 10.2 1.7
246 1 0.0 11.049999999999999 2.55
247 1 0.85 10.2 2.55
248 1 0.85 11.049999999999999 1.7
249 1 0.0 10.2 3.4
250 1 0.0 11.049999999999999 4.25
251 1 0.85 10.2 4.25
252 1 0.85 11.049999999999999 3.4
253 1 0.0 10.2 5.1
254 1 0.0 11.049999999999999 5.949999999999999
255 1 0.85 10.2 5.949999999999999
256 1 0.85 11.049999999999999 5.1
257 1 0.0 10.2 6.8
258 1 0.0 11.049999999999999 7.6499999999999995
259 1 0.85 10.2 7.6499999999999995
260 1 0.85 11.049999999999999 6.8
261 1 0.0 10.2 8.5
262 1 0.0 11.049999999999999 9.35
263 1 0.85 10.2 9.35
264 1 0.85 11.049999999999999 8.5
265 1 0.0 10.2 10.2
266 1 0.0 11.049999999999999 11.049999999999999
267 1 0.85 10.2 11.049999999999999
268 1 0.85 11.049999999999999 10.2
269 1 0.0 10.2 11.9
270 1 0.0 11.049999999999999 12.75
271 1 0.85 10.2 12.75
272 1 0.85 11.049999999999999 11.9
273 1 0.0 10.2 13.6
274 1 0.0 11.049999999999999 14.45
275 1 0.85 10.2 14.45
276 1 0.85 11.049999999999999 13.6
277 1 0.0 10.2 15.299999999999999
278 1 0.0 11.049999999999999 16.15
279 1 0.85 10.2 16.15
280 1 0.85 11.049999999999999 15.299999999999999
281 1 0.0 11.9 0.0
282 1 0.0 12.75 0.85
283 1 0.85 11.9 0.85
284 1 0.85 12.75 0.0
285 1 0.0 11.9 1.7
286 1 0.0 12.75 2.55
287 1 0.85 11.9 2.55
288 1 0.85 12.75 1.7
289 1 0.0 11.9 3.4
290 1 0.0 12.75 4.25
291 1 0.85 11.9 4.25
292 1 0.85 12.75 3.4
293 1 0.0 11.9 5.1
294 1 0.0 12.75 5.949999999999999
295 1 0.85 11.9 5.949999999999999
296 1 0.85 12.75 5.1
297 1 0.0 11.9 6.8
298 1 0.0 12.75 7.6499999999999995
299 1 0.85 11.9 7.6499999999999995
300 1 0.85 12.75 6.8
301 1 0.0 11.9 8.5
302 1 0.0 12.75 9.35
303 1 0.85 11.9 9.35
304 1 0.85 12.75 8.5
305 1 0.0 11.9 10.2
306 1 0.0 12.75 11.049999999999999
307 1 0.85 11.9 11.049999999999999
308 1 0.85 12.75 10.2
309 1 0.0 11.9 11.9
310 1 0.0 12.75 12.75
311 1 0.85 11.9 12.75
312 1 0.85 12.75 11.9
313 1 0.0 11.9 13.6
314 1 0.0 12.75 14.45
315 1 0.85 11.9 14.45
316 1 0.85 12.75 13.6
317 1 0.0 11.9 15.299999999999999
318 1 0.0 12.75 16.15
319 1 0.85 11.9 16.15
320 1 0.85 12.75 15.299999999999999
321 1 0.0 13.6 0.0
322 1 0.0 14.45 0.85
323 1 0.85 13.6 0.85
324 1 0.85 14.45 0.0
325 1 0.0 13.6 1.7
326 1 0.0 14.45 2.55
327 1 0.85 13.6 2.55
328 1 0.85 14.45 1.7
329 1 0.0 13.6 3.4
330 1 0.0 14.45 4.25
331 1 0.85 13.6 4.25
332 1 0.85 14.45 3.4
333 1 0.0 13.6 5.1
334 1 0.0 14.45 5.949999999999999
335 1 0.85 13.6 5.949999999999999
336 1 0.85 14.45 5.1
337 1 0.0 13.6 6.8
338 1 0.0 14.45 7.6499999999999995
339 1 0.85 13.6 7.6499999999999995
340 1 0.85 14.45 6.8
341 1 0.0 13.6 8.5
342 1 0.0 14.45 9.35
343 1 0.85 13.6 9.35
344 1 0.85 14.45 8.5
345 1 0.0 13.6 10.2
346 1 0.0 14.45 11.049999999999999
347 1 0.85 13.6 11.049999999999999
348 1 0.85 14.45 10.2
349 1 0.0 13.6 11.9
350 1 0.0 14.45 12.75
351 1 0.85 13.6 12.75
352 1 0.85 14.45 11.9
353 1 0.0 13.6 13.6
354 1 0.0 14.45 14.45
355 1 0.85 13.6 14.45
356 1 0.85 14.45 13.6
357 1 0.0 13.6 15.299999999999999
358 1 0.0 14.45 16.15
359 1 0.85 13.6 16.15
360 1 0.85 14.45 15.299999999999999
361 1 0.0 15.299999999999999 0.0
362 1 0.0 16.15 0.85
363 1 0.85 15.299999999999999 0.85
364 1 0.85 16.15 0.0
365 1 0.0 15.299999999999999 1.7
366 1 0.0 16.15 2.55
367 1 0.85 15.299999999999999 2.55
368 1 0.85 16.15 1.7
369 1 0.0 15.299999999999999 3.4
370 1 0.0 16.15 4.25
371 1 0.85 15.299999999999999 4.25
372 1 0.85 16.15 3.4
373 1 0.0 15.299999999999999 5.1
374 1 0.0 16.15 5.949999999999999
375 1 0.85 15.299999999999999 5.949999999999999
376 1 0.85 16.15 5.1
377 1 0.0 15.299999999999999 6.8
378 1 0.0 16.15 7.6499999999999995
379 1 0.85 15.299999999999999 7.6499999999999995
380 1 0.85 16.15 6.8
381 1 0.0 15.299999999999999 8.5
382 1 0.0 16.15 9.35
383 1 0.85 15.299999999999999 9.35
384 1 0.85 16.15 8.5
385 1 0.0 15.299999999999999 10.2
386 1 0.0 16.15 11.049999999999999
387 1 0.85 15.299999999999999 11.049999999999999
388 1 0.85 16.15 10.2
389 1 0.0 15.299999999999999 11.9
390 1 0.0 16.15 12.75
391 1 0.85 15.299999999999999 12.75
392 1 0.85 16.15 11.9
393 1 0.0 15.299999999999999 13.6
394 1 0.0 16.15 14.45
395 1 0.85 15.299999999999999 14.45
396 1 0.85 16.15 13.6
397 1 0.0 15.299999999999999 15.299999999999999
398 1 0.0 16.15 16.15
399 1 0.85 15.299999999999999 16.15
400 1 0.85 16.15 15.299999999999999
401 1 1.7 0.0 0.0
402 1 1.7 0.85 0.85
403 1 2.55 0.0 0.85
404 1 2.55 0.85 0.0
405 1 1.7 0.0 1.7
406 1 1.7 0.85 2.55
407 1 2.55 0.0 2.55
408 1 2.55 0.85 1.7
409 1 1.7 0.0 3.4
410 1 1.7 0.85 4.25
411 1 2.55 0.0 4.25
412 1 2.55 0.85 3.4
413 1 1.7 0.0 5.1
414 1 1.7 0.85 5.949999999999999
415 1 2.55 0.0 5.949999999999999
416 1 2.55 0.85 5.1
417 1 1.7 0.0 6.8
418 1 1.7 0.85 7.6499999999999995
419 1 2.55 0.0 7.6499999999999995
420 1 2.55 0.85 6.8
421 1 1.7 0.0 8.5
422 1 1.7 0.85 9.35
423 1 2.55 0.0 9.35
424 1 2.55 0.85 8.5
425 1 1.7 0.0 10.2
426 1 1.7 0.85 11.049999999999999
427 1 2.55 0.0 11.049999999999999
428 1 2.55 0.85 10.2
429 1 1.7 0.0 11.9
430 1 1.7 0.85 12.75
431 1 2.55 0.0 12.75
432 1 2.55 0.85 11.9
433 1 1.7 0.0 13.6
434 1 1.7 0.85 14.45
435 1 2.55 0.0 14.45
436 1 2.55 0.85 13.6
437 1 1.7 0.0 15.299999999999999
438 1 1.7 0.85 16.15
439 1 2.55 0.0 16.15
440 1 2.55 0.85 15.299999999999999
441 1 1.7 1.7 0.0
442 1 1.7 2.55 0.85
443 1 2.55 1.7 0.85
444 1 2.55 2.55 0.0
445 1 1.7 1.7 1.7
446 1 1.7 2.55 2.55
447 1 2.55 1.7 2.55
448 1 2.55 2.55 1.7
449 1 1.7 1.7 3.4
450 1 1.7 2.55 4.25
451 1 2.55 1.7 4.25
452 1 2.55 2.55 3.4
453 1 1.7 1.7 5.1
454 1 1.7 2.55 5.949999999999999
455 1 2.55 1.7 5.949999999999999
456 1 2.55 2.55 5.1
457 1 1.7 1.7 6.8
458 1 1.7 2.55 7.6499999999999995
459 1 2.55 1.7 7.6499999999999995
460 1 2.55 2.55 6.8
461 1 1.7 1.7 8.5
462 1 1.7 2.55 9.35
463 1 2.55 1.7 9.35
464 1 2.55 2.55 8.5
465 1 1.7 1.7 10.2
466 1 1.7 2.55 11.049999999999999
467 1 2.55 1.7 11.049999999999999
468 1 2.55 2.55 10.2
469 1 1.7 1.7 11.9
470 1 1.7 2.55 12.75
471 1 2.55 1.7 12.75
472 1 2.55 2.55 11.9
473 1 1.7 1.7 13.6
474 1 1.7 2.55 14.45
475 1 2.55 1.7 14.45
476 1 2.55 2.55 13.6
477 1 1.7 1.7 15.299999999999999
478 1 1.7 2.55 16.15
479 1 2.55 1.7 16.15
480 1 2.55 2.55 15.299999999999999
481 1 1.7 3.4 0.0
482 1 1.7 4.25 0.85
483 1 2.55 3.4 0.85
484 1 2.55 4.25 0.0
485 1 1.7 3.4 1.7
486 1 1.7 4.25 2.55
487 1 2.55 3.4 2.55
488 1 2.55 4.25 1.7
489 1 1.7 3.4 3.4
490 1 1.7 4.25 4.25
491 1 2.55 3.4 4.25
492 1 2.55 4.25 3.4
493 1 1.7 3.4 5.1
494 1 1.7 4.25 5.949999999999999
495 1 2.55 3.4 5.949999999999999
496 1 2.55 4.25 5.1
497 1 1.7 3.4 6.8
498 1 1.7 4.25 7.6499999999999995
499 1 2.55 3.4 7.6499999999999995
500 1 2.55 4.25 6.8
501 1 1.7 3.4 8.5
502 1 1.7 4.25 9.35
503 1 2.55 3.4 9.35
504 1 2.55 4.25 8.5
505 1 1.7 3.4 10.2
506 1 1.7 4.25 11.049999999999999
507 1 2.55 3.4 11.049999999999999
508 1 2.55 4.25 10.2
509 1 1.7 3.4 11.9
510 1 1.7 4.25 12.75
511 1 2.55 3.4 12.75
512 1 2.55 4.25 11.9
513 1 1.7 3.4 13.6
514 1 1.7 4.25 14.45
515 1 2.55 3.4 14.45
516 1 2.55 4.25 13.6
517 1 1.7 3.4 15.299999999999999
518 1 1.7 4.25 16.15
519 1 2.55 3.4 16.15
520 1 2.55 4.25 15.299999999999999
521 1 1.7 5.1 0.0
522 1 1.7 5.949999999999999 0.85
523 1 2.55 5.1 0.85
524 1 2.55 5.949999999999999 0.0
525 1 1.7 5.1 1.7
526 1 1.7 5.949999999999999 2.55
527 1 2.55 5.1 2.55
528 1 2.55 5.949999999999999 1.7
529 1 1.7 5.1 3.4
530 1 1.7 5.949999999999999 4.25
531 1 2.55 5.1 4.25
532 1 2.55 5.949999999999999 3.4
533 1 1.7 5.1 5.1
534 1 1.7 5.949999999999999 5.949999999999999
535 1 2.55 5.1 5.949999999999999
536 1 2.55 5.949999999999999 5.1
537 1 1.7 5.1 6.8
538 1 1.7 5.949999999999999 7.6499999999999995
539 1 2.55 5.1 7.6499999999999995
540 1 2.55 5.949999999999999 6.8
541 1 1.7 5.1 8.5
542 1 1.7 5.949999999999999 9.35
543 1 2.55 5.1 9.35
544 1 2.55 5.949999999999999 8.5
545 1 1.7 5.1 10.2
546 1 1.7 5.949999999999999 11.049999999999999
547 1 2.55 5.1 11.049999999999999
548 1 2.55 5.949999999999999 10.2
549 1 1.7 5.1 11.9
550 1 1.7 5.949999999999999 12.75
551 1 2.55 5.1 12.75
552 1 2.55 5.949999999999999 11.9
553 1 1.7 5.1 13.6
554 1 1.7 5.949999999999999 14.45
555 1 2.55 5.1 14.45
556 1 2.55 5.949999999999999 13.6
557 1 1.7 5.1 15.299999999999999
558 1 1.7 5.949999999999999 16.15
559 1 2.55 5.1 16.15
560 1 2.55 5.949999999999999 15.299999999999999
561 1 1.7 6.8 0.0
562 1 1.7 7.6499999999999995 0.85
563 1 2.55 6.8 0.85
564 1 2.55 7.6499999999999995 0.0
565 1 1.7 6.8 1.7
566 1 1.7 7.6499999999999995 2.55
567 1 2.55 6.8 2.55
568 1 2.55 7.6499999999999995 1.7
569 1 1.7 6.8 3.4
570 1 1.7 7.6499999999999995 4.25
571 1 2.55 6.8 4.25
572 1 2.55 7.6499999999999995 3.4
573 1 1.7 6.8 5.1
574 1 1.7 7.6499999999999995 5.949999999999999
575 1 2.55 6.8 5.949999999999999
576 1 2.55 7.6499999999999995 5.1
577 1 1.7 6.8 6.8
578 1 1.7 7.6499999999999995 7.6499999999999995
579 1 2.55 6.8 7.6499999999999995
580 1 2.55 7.6499999999999995 6.8
581 1 1.7 6.8 8.5
582 1 1.7 7.6499999999999995 9.35
583 1 2.55 6.8 9.35
584 1 2.55 7.6499999999999995 8.5
585 1 1.7 6.8 10.2
586 1 1.7 7.6499999999999995 11.049999999999999
587 1 2.55 6.8 11.049999999999999
588 1 2.55 7.6499999999999995 10.2
589 1 1.7 6.8 11.9
590 1 1.7 7.6499999999999995 12.75
591 1 2.55 6.8 12.75
592 1 2.55 7.6499999999999995 11.9
593 1 1.7 6.8 13.6
594 1 1.7 7.6499999999999995 14.45
595 1 2.55 6.8 14.45
596 1 2.55 7.6499999999999995 13.6
597 1 1.7 6.8 15.299999999999999
598 1 1.7 7.6499999999999995 16.15
599 1 2.55 6.8 16.15
600 1 2.55 7.6499999999999995 15.299999999999999
601 1 1.7 8.5 0.0
602 1 1.7 9.35 0.85
603 1 2.55 8.5 0.85
604 1 2.55 9.35 0.0
605 1 1.7 8.5 1.7
606 1 1.7 9.35 2.55
607 1 2.55 8.5 2.55
608 1 2.55 9.35 1.7
609 1 1.7 8.5 3.4
610 1 1.7 9.35 4.25
611 1 2.55 8.5 4.25
612 1 2.55 9.35 3.4
613 1 1.7 8.5 5.1
614 1 1.7 9.35 5.949999999999999
615 1 2.55 8.5 5.949999999999999
616 1 2.55 9.35 5.1
617 1 1.7 8.5 6.8
618 1 1.7 9.35 7.6499999999999995
619 1 2.55 8.5 7.6499999999999995
620 1 2.55 9.35 6.8
621 1 1.7 8.5 8.5
622 1 1.7 9.35 9.35
623 1 2.55 8.5 9.35
624 1 2.55 9.35 8.5
625 1 1.7 8.5 10.2
626 1 1.7 9.35 11.049999999999999
627 1 2.55 8.5 11.049999999999999
628 1 2.55 9.35 10.2
629 1 1.7 8.5 11.9
630 1 1.7 9.35 12.75
631 1 2.55 8.5 12.75
632 1 2.55 9.35 11.9
633 1 1.7 8.5 13.6
634 1 1.7 9.35 14.45
635 1 2.55 8.5 14.45
636 1 2.55 9.35 13.6
637 1 1.7 8.5 15.299999999999999
638 1 1.7 9.35 16.15
639 1 2.55 8.5 16.15
640 1 2.55 9.35 15.299999999999999
641 1 1.7 10.2 0.0
642 1 1.7 11.049999999999999 0.85
643 1 2.55 10.2 0.85
644 1 2.55 11.049999999999999 0.0
645 1 1.7 10.2 1.7
646 1 1.7 11.049999999999999 2.55
647 1 2.55 10.2 2.55
648 1 2.55 11.049999999999999 1.7
649 1 1.7 10.2 3.4
650 1 1.7 11.049999999999999 4.25
651 1 2.55 10.2 4.25
652 1 2.55 11.049999999999999 3.4
653 1 1.7 10.2 5.1
654 1 1.7 11.049999999999999 5.949999999999999
655 1 2.55 10.2 5.949999999999999
656 1 2.55 11.049999999999999 5.1
657 1 1.7 10.2 6.8
658 1 1.7 11.049999999999999 7.6499999999999995
659 1 2.55 10.2 7.6499999999999995
660 1 2.55 11.049999999999999 6.8
661 1 1.7 10.2 8.5
662 1 1.7 11.049999999999999 9.35
663 1 2.55 10.2 9.35
664 1 2.55 11.049999999999999 8.5
665 1 1.7 10.2 10.2
666 1 1.7 11.049999999999999 11.049999999999999
667 1 2.55 10.2 11.049999999999999
668 1 2.55 11.049999999999999 10.2
669 1 1.7 10.2 11.9
670 1 1.7 11.049999999999999 12.75
671 1 2.55 10.2 12.75
672 1 2.55 11.049999999999999 11.9
673 1 1.7 10.2 13.6
674 1 1.7 11.049999999999999 14.45
675 1 2.55 10.2 14.45
676 1 2.55 11.049999999999999 13.6
677 1 1.7 10.2 15.299999999999999
678 1 1.7 11.049999999999999 16.15
679 1 2.55 10.2 16.15
680 1 2.55 11.049999999999999 15.299999999999999
681 1 1.7 11.9 0.0
682 1 1.7 12.75 0.85
683 1 2.55 11.9 0.85
684 1 2.55 12.75 0.0
685 1 1.7 11.9 1.7
686 1 1.7 12.75 2.55
687 1 2.55 11.9 2.55
688 1 2.55 12.75 1.7
689 1 1.7 11.9 3.4
690 1 1.7 12.75 4.25
691 1 2.55 11.9 4.25
692 1 2.55 12.75 3.4
693 1 1.7 11.9 5.1
694 1 1.7 12.75 5.949999999999999
695 1 2.55 11.9 5.949999999999999
696 1 2.55 12.75 5.1
697 1 1.7 11.9 6.8
698 1 1.7 12.75 7.6499999999999995
699 1 2.55 11.9 7.6499999999999995
700 1 2.55 12.75 6.8
701 1 1.7 11.9 8.5
702 1 1.7 12.75 9.35
703 1 2.55 11.9 9.35
704 1 2.55 12.75 8.5
705 1 1.7 11.9 10.2
706 1 1.7 12.75 11.049999999999999
707 1 2.55 11.9 11.049999999999999
708 1 2.55 12.75 10.2
709 1 1.7 11.9 11.9
710 1 1.7 12.75 12.75
711 1 2.55 11.9 12.75
712 1 2.55 12.75 11.9
713 1 1.7 11.9 13.6
714 1 1.7 12.75 14.45
715 1 2.55 11.9 14.45
716 1 2.55 12.75 13.6
717 1 1.7 11.9 15.299999999999999
718 1 1.7 12.75 16.15
719 1 2.55 11.9 16.15
720 1 2.55 12.75 15.299999999999999
721 1 1.7 13.6 0.0
722 1 1.7 14.45 0.85
723 1 2.55 13.6 0.85
724 1 2.55 14.45 0.0
725 1 1.7 13.6 1.7
726 1 1.7 14.45 2.55
727 1 2.55 13.6 2.55
728 1 2.55 14.45 1.7
729 1 1.7 13.6 3.4
730 1 1.7 14.45 4.25
731 1 2.55 13.6 4.25
732 1 2.55 14.45 3.4
733 1 1.7 13.6 5.1
734 1 1.7 14.45 5.949999999999999
735 1 2.55 13.6 5.949999999999999
736 1 2.55 14.45 5.1
737 1 1.7 13.6 6.8
738 1 1.7 14.45 7.6499999999999995
739 1 2.55 13.6 7.6499999999999995
740 1 2.55 14.45 6.8
741 1 1.7 13.6 8.5
742 1 1.7 14.45 9.35
743 1 2.55 13.6 9.35
744 1 2.55 14.45 8.5
745 1 1.7 13.6 10.2
746 1 1.7 14.45 11.049999999999999
747 1 2.55 13.6 11.049999999999999
748 1 2.55 14.45 10.2
749 1 1.7 13.6 11.9
750 1 1.7 14.45 12.75
751 1 2.55 13.6 12.75
752 1 2.55 14.45 11.9
753 1 1.7 13.6 13.6
754 1 1.7 14.45 14.45
755 1 2.55 13.6 14.45
756 1 2.55 14.45 13.6
757 1 1.7 13.6 15.299999999999999
758 1 1.7 14.45 16.15
759 1 2.55 13.6 16.15
760 1 2.55 14.45 15.299999999999999
761 1 1.7 15.299999999999999 0.0
762 1 1.7 16.15 0.85
763 1 2.55 15.299999999999999 0.85
764 1 2.55 16.15 0.0
765 1 1.7 15.299999999999999 1.7
766 1 1.7 16.15 2.55
767 1 2.55 15.299999999999999 2.55
768 1 2.55 16.15 1.7
769 1 1.7 15.299999999999999 3.4
770 1 1.7 16.15 4.25
771 1 2.55 15.299999999999999 4.25
772 1 2.55 16.15 3.4
773 1 1.7 15.299999999999999 5.1
774 1 1.7 16.15 5.949999999999999
775 1 2.55 15.299999999999999 5.949999999999999
776 1 2.55 16.15 5.1
777 1 1.7 15.299999999999999 6.8
778 1 1.7 16.15 7.6499999999999995
779 1 2.55 15.299999999999999 7.6499999999999995
780 1 2.55 16.15 6.8
781 1 1.7 15.299999999999999 8.5
782 1 1.7 16.15 9.35
783 1 2.55 15.299999999999999 9.35
784 1 2.55 16.15 8.5
785 1 1.7 15.299999999999999 10.2
786 1 1.7 16.15 11.049999999999999
787 1 2.55 15.299999999999999 11.049999999999999
788 1 2.55 16.15 10.2
789 1 1.7 15.299999999999999 11.9
790 1 1.7 16.15 12.75
791 1 2.55 15.299999999999999 12.75
792 1 2.55 16.15 11.9
793 1 1.7 15.299999999999999 13.6
794 1 1.7 16.15 14.45
795 1 2.55 15.299999999999999 14.45
796 1 2.55 16.15 13.6
797 1 1.7 15.299999999999999 15.299999999999999
798 1 1.7 16.15 16.15
799 1 2.55 15.299999999999999 16.15
800 1 2.55 16.15 15.299999999999999
801 1 3.4 0.0 0.0
802 1 3.4 0.85 0.85
803 1 4.25 0.0 0.85
804 1 4.25 0.85 0.0
805 1 3.4 0.0 1.7
806 1 3.4 0.85 2.55
807 1 4.25 0.0 2.55
808 1 4.25 0.85 1.7
809 1 3.4 0.0 3.4
810 1 3.4 0.85 4.25
811 1 4.25 0.0 4.25
812 1 4.25 0.85 3.4
813 1 3.4 0.0 5.1
814 1 3.4 0.85 5.949999999999999
815 1 4.25 0.0 5.949999999999999
816 1 4.25 0.85 5.1
817 1 3.4 0.0 6.8
818 1 3.4 0.85 7.6499999999999995
819 1 4.25 0.0 7.6499999999999995
820 1 4.25 0.85 6.8
821 1 3.4 0.0 8.5
822 1 3.4 0.85 9.35
823 1 4.25 0.0 9.35
824 1 4.25 0.85 8.5
825 1 3.4 0.0 10.2
826 1 3.4 0.85 11.049999999999999
827 1 4.25 0.0 11.049999999999999
828 1 4.25 0.85 10.2
829 1 3.4 0.0 11.9
830 1 3.4 0.85 12.75
831 1 4.25 0.0 12.75
832 1 4.25 0.85 11.9
833 1 3.4 0.0 13.6
834 1 3.4 0.85 14.45
835 1 4.25 0.0 14.45
836 1 4.25 0.85 13.6
837 1 3.4 0.0 15.299999999999999
838 1 3.4 0.85 16.15
839 1 4.25 0.0 16.15
840 1 4.25 0.85 15.299999999999999
841 1 3.4 1.7 0.0
842 1 3.4 2.55 0.85
843 1 4.25 1.7 0.85
844 1 4.25 2.55 0.0
845 1 3.4 1.7 1.7
846 1 3.4 2.55 2.55
847 1 4.25 1.7 2.55
848 1 4.25 2.55 1.7
849 1 3.4 1.7 3.4
850 1 3.4 2.55 4.25
851 1 4.25 1.7 4.25
852 1 4.25 2.55 3.4
853 1 3.4 1.7 5.1
854 1 3.4 2.55 5.949999999999999
855 1 4.25 1.7 5.949999999999999
856 1 4.25 2.55 5.1
857 1 3.4 1.7 6.8
858 1 3.4 2.55 7.6499999999999995
859 1 4.25 1.7 7.6499999999999995
860 1 4.25 2.55 6.8
861 1 3.4 1.7 8.5
862 1 3.4 2.55 9.35
863 1 4.25 1.7 9.35
864 1 4.25 2.55 8.5
865 1 3.4 1.7 10.2
866 1 3.4 2.55 11.049999999999999
867 1 4.25 1.7 11.049999999999999
868 1 4.25 2.55 10.2
869 1 3.4 1.7 11.9
870 1 3.4 2.55 12.75
871 1 4.25 1.7 12.75
872 1 4.25 2.55 11.9
873 1 3.4 1.7 13.6
874 1 3.4 2.55 14.45
875 1 4.25 1.7 14.45
876 1 4.25 2.55 13.6
877 1 3.4 1.7 15.299999999999999
878 1 3.4 2.55 16.15
879 1 4.25 1.7 16.15
880 1 4.25 2.55 15.299999999999999
881 1 3.4 3.4 0.0
882 1 3.4 4.25 0.85
883 1 4.25 3.4 0.85
884 1 4.25 4.25 0.0
885 1 3.4 3.4 1.7
886 1 3.4 4.25 2.55
887 1 4.25 3.4 2.55
888 1 4.25 4.25 1.7
889 1 3.4 3.4 3.4
890 1 3.4 4.25 4.25
891 1 4.25 3.4 4.25
892 1 4.25 4.25 3.4
893 1 3.4 3.4 5.1
894 1 3.4 4.25 5.949999999999999
895 1 4.25 3.4 5.949999999999999
896 1 4.25 4.25 5.1
897 1 3.4 3.4 6.8
898 1 3.4 4.25 7.6499999999999995
899 1 4.25 3.4 7.6499999999999995
900 1 4.25 4.25 6.8
901 1 3.4 3.4 8.5
902 1 3.4 4.25 9.35
903 1 4.25 3.4 9.35
904 1 4.25 4.25 8.5
905 1 3.4 3.4 10.2
906 1 3.4 4.25 11.049999999999999
907 1 4.25 3.4 11.049999999999999
908 1 4.25 4.25 10.2
909 1 3.4 3.4 11.9
910 1 3.4 4.25 12.75
911 1 4.25 3.4 12.75
912 1 4.25 4.25 11.9
913 1 3.4 3.4 13.6
914 1 3.4 4.25 14.45
915 1 4.25 3.4 14.45
916 1 4.25 4.25 13.6
917 1 3.4 3.4 15.299999999999999
918 1 3.4 4.25 16.15
919 1 4.25 3.4 16.15
920 1 4.25 4.25 15.299999999999999
921 1 3.4 5.1 0.0
922 1 3.4 5.949999999999999 0.85
923 1 4.25 5.1 0.85
924 1 4.25 5.949999999999999 0.0
925 1 3.4 5.1 1.7
926 1 3.4 5.949999999999999 2.55
927 1 4.25 5.1 2.55
928 1 4.25 5.949999999999999 1.7
929 1 3.4 5.1 3.4
930 1 3.4 5.949999999999999 4.25
931 1 4.25 5.1 4.25
932 1 4.25 5.949999999999999 3.4
933 1 3.4 5.1 5.1
934 1 3.4 5.949999999999999 5.949999999999999
935 1 4.25 5.1 5.949999999999999
936 1 4.25 5.949999999999999 5.1
937 1 3.4 5.1 6.8
938 1 3.4 5.949999999999999 7.6499999999999995
939 1 4.25 5.1 7.6499999999999995
940 1 4.25 5.949999999999999 6.8
941 1 3.4 5.1 8.5
942 1 3.4 5.949999999999999 9.35
943 1 4.25 5.1 9.35
944 1 4.25 5.949999999999999 8.5
945 1 3.4 5.1 10.2
946 1 3.4 5.949999999999999 11.049999999999999
947 1 4.25 5.1 11.049999999999999
948 1 4.25 5.949999999999999 10.2
949 1 3.4 5.1 11.9
950 1 3.4 5.949999999999999 12.75
951 1 4.25 5.1 12.75
952 1 4.25 5.949999999999999 11.9
953 1 3.4 5.1 13.6
954 1 3.4 5.949999999999999 14.45
955 1 4.25 5.1 14.45
956 1 4.25 5.949999999999999 13.6
957 1 3.4 5.1 15.299999999999999
958 1 3.4 5.949999999999999 16.15
959 1 4.25 5.1 16.15
960 1 4.25 5.949999999999999 15.299999999999999
961 1 3.4 6.8 0.0
962 1 3.4 7.6499999999999995 0.85
963 1 4.25 6.8 0.85
964 1 4.25 7.6499999999999995 0.0
965 1 3.4 6.8 1.7
966 1 3.4 7.6499999999999995 2.55
967 1 4.25 6.8 2.55
968 1 4.25 7.6499999999999995 1.7
969 1 3.4 6.8 3.4
970 1 3.4 7.6499999999999995 4.25
971 1 4.25 6.8 4.25
972 1 4.25 7.6499999999999995 3.4
973 1 3.4 6.8 5.1
974 1 3.4 7.6499999999999995 5.949999999999999
975 1 4.25 6.8 5.949999999999999
976 1 4.25 7.6499999999999995 5.1
977 1 3.4 6.8 6.8
978 1 3.4 7.6499999999999995 7.6499999999999995
979 1 4.25 6.8 7.6499999999999995
980 1 4.25 7.6499999999999995 6.8
981 1 3.4 6.8 8.5
982 1 3.4 7.6499999999999995 9.35
983 1 4.25 6.8 9.35
984 1 4.25 7.6499999999999995 8.5
985 1 3.4 6.8 10.2
986 1 3.4 7.6499999999999995 11.049999999999999
987 1 4.25 6.8 11.049999999999999
988 1 4.25 7.6499999999999995 10.2
989 1 3.4 6.8 11.9
990 1 3.4 7.6499999999999995 12.75
991 1 4.25 6.8 12.75
992 1 4.25 7.6499999999999995 11.9
993 1 3.4 6.8 13.6
994 1 3.4 7.6499999999999995 14.45
995 1 4.25 6.8 14.45
996 1 4.25 7.6499999999999995 13.6
997 1 3.4 6.8 15.299999999999999
998 1 3.4 7.6499999999999995 16.15
999 1 4.25 6.8 16.15
1000 1 4.25 7.6499999999999995 15.299999999999999
1001 1 3.4 8.5 0.0
1002 1 3.4 9.35 0.85
1003 1 4.25 8.5 0.85
1004 1 4.25 9.35 0.0
1005 1 3.4 8.5 1.7
1006 1 3.4 9.35 2.55
1007 1 4.25 8.5 2.55
1008 1 4.25 9.35 1.7
1009 1 3.4 8.5 3.4
1010 1 3.4 9.35 4.25
1011 1 4.25 8.5 4.25
1012 1 4.25 9.35 3.4
1013 1 3.4 8.5 5.1
1014 1 3.4 9.35 5.949999999999999
1015 1 4.25 8.5 5.949999999999999
1016 1 4.25 9.35 5.1
1017 1 3.4 8.5 6.8
1018 1 3.4 9.35 7.6499999999999995
1019 1 4.25 8.5 7.6499999999999995
1020 1 4.25 9.35 6.8
1021 1 3.4 8.5 8.5
1022 1 3.4 9.35 9.35
1023 1 4.25 8.5 9.35
1024 1 4.25 9.35 8.5
1025 1 3.4 8.5 10.2
1026 1 3.4 9.35 11.049999999999999
1027 1 4.25 8.5 11.049999999999999
1028 1 4.25 9.35 10.2
1029 1 3.4 8.5 11.9
1030 1 3.4 9.35 12.75
1031 1 4.25 8.5 12.75
1032 1 4.25 9.35 11.9
1033 1 3.4 8.5 13.6
1034 1 3.4 9.35 14.45
1035 1 4.25 8.5 14.45
1036 1 4.25 9.35 13.6
1037 1 3.4 8.5 15.299999999999999
1038 1 3.4 9.35 16.15
1039 1 4.25 8.5 16.15
1040 1 4.25 9.35 15.299999999999999
1041 1 3.4 10.2 0.0
1042 1 3.4 11.049999999999999 0.85
1043 1 4.25 10.2 0.85
1044 1 4.25 11.049999999999999 0.0
1045 1 3.4 10.2 1.7
1046 1 3.4 11.049999999999999 2.55
1047 1 4.25 10.2 2.55
1048 1 4.25 11.049999999999999 1.7
1049 1 3.4 10.2 3.4
1050 1 3.4 11.049999999999999 4.25
1051 1 4.25 10.2 4.25
1052 1 4.25 11.049999999999999 3.4
1053 1 3.4 10.2 5.1
1054 1 3.4 11.049999999999999 5.949999999999999
1055 1 4.25 10.2 5.949999999999999
1056 1 4.25 11.049999999999999 5.1
1057 1 3.4 10.2 6.8
1058 1 3.4 11.049999999999999 7.6499999999999995
1059 1 4.25 10.2 7.6499999999999995
1060 1 4.25 11.049999999999999 6.8
1061 1 3.4 10.2 8.5
1062 1 3.4 11.049999999999999 9.35
1063 1 4.25 10.2 9.35
1064 1 4.25 11.049999999999999 8.5
1065 1 3.4 10.2 10.2
1066 1 3.4 11.049999999999999 11.049999999999999
1067 1 4.25 10.2 11.049999999999999
1068 1 4.25 11.049999999999999 10.2
1069 1 3.4 10.2 11.9
1070 1 3.4 11.049999999999999 12.75
1071 1 4.25 10.2 12.75
1072 1 4.25 11.049999999999999 11.9
1073 1 3.4 10.2 13.6
1074 1 3.4 11.049999999999999 14.45
1075 1 4.25 10.2 14.45
1076 1 4.25 11.049999999999999 13.6
1077 1 3.4 10.2 15.299999999999999
1078 1 3.4 11.049999999999999 16.15
1079 1 4.25 10.2 16.15
1080 1 4.25 11.049999999999999 15.299999999999999
1081 1 3.4 11.9 0.0
1082 1 3.4 12.75 0.85
1083 1 4.25 11.9 0.85
1084 1 4.25 12.75 0.0
1085 1 3.4 11.9 1.7
1086 1 3.4 12.75 2.55
1087 1 4.25 11.9 2.55
1088 1 4.25 12.75 1.7
1089 1 3.4 11.9 3.4
1090 1 3.4 12.75 4.25
1091 1 4.25 11.9 4.25
1092 1 4.25 12.75 3.4
1093 1 3.4 11.9 5.1
1094 1 3.4 12.75 5.949999999999999
1095 1 4.25 11.9 5.949999999999999
1096 1 4.25 12.75 5.1
1097 1 3.4 11.9 6.8
1098 1 3.4 12.75 7.6499999999999995
1099 1 4.25 11.9 7.6499999999999995
1100 1 4.25 12.75 6.8
1101 1 3.4 11.9 8.5
1102 1 3.4 12.75 9.35
1103 1 4.25 11.9 9.35
1104 1 4.25 12.75 8.5
1105 1 3.4 11.9 10.2
1106 1 3.4 12.75 11.049999999999999
1107 1 4.25 11.9 11.049999999999999
1108 1 4.25 12.75 10.2
1109 1 3.4 11.9 11.9
1110 1 3.4 12.75 12.75
1111 1 4.25 11.9 12.75
1112 1 4.25 12.75 11.9
1113 1 3.4 11.9 13.6
1114 1 3.4 12.75 14.45
1115 1 4.25 11.9 14.45
1116 1 4.25 12.75 13.6
1117 1 3.4 11.9 15.299999999999999
1118 1 3.4 12.75 16.15
1119 1 4.25 11.9 16.15
1120 1 4.25 12.75 15.299999999999999
1121 1 3.4 13.6 0.0
1122 1 3.4 14.45 0.85
1123 1 4.25 13.6 0.85
1124 1 4.25 14.45 0.0
1125 1 3.4 13.6 1.7
1126 1 3.4 14.45 2.55
1127 1 4.25 13.6 2.55
1128 1 4.25 14.45 1.7
1129 1 3.4 13.6 3.4
1130 1 3.4 14.45 4.25
1131 1 4.25 13.6 4.25
1132 1 4.25 14.45 3.4
1133 1 3.4 13.6 5.1
1134 1 3.4 14.45 5.949999999999999
1135 1 4.25 13.6 5.949999999999999
1136 1 4.25 14.45 5.1
1137 1 3.4 13.6 6.8
1138 1 3.4 14.45 7.6499999999999995
1139 1 4.25 13.6 7.6499999999999995
1140 1 4.25 14.45 6.8
1141 1 3.4 13.6 8.5
1142 1 3.4 14.45 9.35
1143 1 4.25 13.6 9.35
1144 1 4.25 14.45 8.5
1145 1 3.4 13.6 10.2
1146 1 3.4 14.45 11.049999999999999
1147 1 4.25 13.6 11.049999999999999
1148 1 4.25 14.45 10.2
1149 1 3.4 13.6 11.9
1150 1 3.4 14.45 12.75
1151 1 4.25 13.6 12.75
1152 1 4.25 14.45 11.9
1153 1 3.4 13.6 13.6
1154 1 3.4 14.45 14.45
1155 1 4.25 13.6 14.45
1156 1 4.25 14.45 13.6
1157 1 3.4 13.6 15.299999999999999
1158 1 3.4 14.45 16.15
1159 1 4.25 13.6 16.15
1160 1 4.25 14.45 15.299999999999999
1161 1 3.4 15.299999999999999 0.0
1162 1 3.4 16.15 0.85
1163 1 4.25 15.299999999999999 0.85
1164 1 4.25 16.15 0.0
1165 1 3.4 15.299999999999999 1.7
1166 1 3.4 16.15 2.55
1167 1 4.25 15.299999999999999 2.55