Position Data

4187 atoms
187 bonds

3 atom types
1 bond types

0.00 17.85 xlo xhi
0.00 17.85 ylo yhi
0.00 17.85 zlo zhi

Atoms

1 0 1 1.5390165 1.013754 1.3803090000000002
43 1 1 0.48822585 1.5655500000000002 1.2380235000000002
39 2 1 0.5859147 0.4448325 0.9529590000000001
397 3 1 1.2494895000000001 1.2768105 0.27450045000000006
800 365 1 1.72473 0.19564755 0.5567856
38 3609 1 0.10046673000000002 1.2788895 0.1595937
48 5 1 2.863014 0.042231630000000006 0.14435925
481 6 1 2.7286560000000004 0.36532440000000005 1.3755735000000002
442 7 1 2.49669 1.1077290000000002 0.4688166
848 9 1 3.3193650000000003 1.424661 1.2636435000000001
443 8 1 3.7342305000000002 0.4560675 0.74976615
1677 11 2 4.408887000000001 1.3812330000000002 0.94491705
878 12 1 3.6524145 1.4074515 0.06407625
519 14 1 4.8778904999999995 0.54385695 0.3018876
1601 15 1 5.788324500000001 1.254666 0.48170324999999997
1602 16 1 5.370382500000001 0.6655288500000001 1.7056515
1203 17 1 6.1699785 0.22969695 0.9796143
1962 18 1 6.9398385000000005 0.8122915500000001 0.33782595
1604 19 1 7.068243 0.74737425 1.5409485
1639 20 1 7.977879 0.96378765 0.8384670000000001
2038 382 1 8.748033 0.06829305000000001 0.9319348500000001
1683 417 1 8.137185 1.7059035000000002 1.7749305
2041 3625 1 8.834469 0.8056870500000001 0.017172750000000004
1239 3977 1 7.922365500000001 0.1227261 0.022075725
2004 22 1 8.930754 1.6304295 0.8908557
2042 23 1 9.9867285 0.87882585 0.3238662
2444 24 1 9.832956000000001 1.0916430000000001 1.4814450000000001
2445 25 1 10.87947 0.6020784 1.2150705000000002
2881 26 1 11.867415000000001 1.1858385 1.5814575000000002
2842 27 1 11.749710000000002 0.6134341500000001 0.4271631
2848 390 1 11.982915 0.032465475 1.4696955
2843 28 1 13.609995000000001 0.37200555 0.31258290000000005
2887 29 1 13.82178 1.331862 1.04512065
3251 30 1 13.267485 0.15238020000000002 1.505385
3202 32 1 12.750465 0.9346134 0.8853075
3285 3635 1 14.206185000000001 1.560195 0.012846540000000002
3242 33 1 14.734860000000001 0.6544765499999999 0.5327290499999999
3208 34 1 15.930810000000001 0.80738805 0.71954295
3248 35 1 15.107925000000002 1.473213 1.2082875
3211 36 1 15.32538 0.35275695 1.5518475000000003
3318 37 1 15.36465 1.5603420000000001 0.006493168499999999
3642 39 1 17.15154 0.6690915 0.7410459
3645 40 1 16.16223 1.359309 1.7203935000000001
3723 79 1 17.184195 1.723176 1.2402495
118 41 1 0.82176255 2.476215 0.6001863
485 10 1 1.882188 2.0321595 0.8755572
918 42 1 1.907934 3.1633035 0.5734848
44 44 1 3.2551995000000002 2.5908015 1.5356670000000001
517 45 1 2.9743035 2.250234 0.44247840000000005
123 46 1 3.438099 3.3410265 0.59388
486 47 2 2.129022 2.8566615 1.6711695000000002
4001 11 3 5.227078500000001 1.8771270000000002 1.3150095
2082 49 1 4.295907 2.5518255 0.9003036
882 50 1 5.120115 3.396351 0.88876305
1641 51 1 6.547117500000001 1.8051810000000001 1.1929155
1284 52 1 5.7123255 2.4527265 0.43882545
1274 53 1 6.0071025 2.8707945 1.487766
1280 54 1 6.774327 2.9196720000000003 0.60802665
1241 56 1 6.646521000000001 1.8993870000000002 0.04354812
2078 57 1 7.878979500000001 3.2820795 0.4893294
2077 58 1 7.6480215000000005 2.1051135 0.7481092500000001
1643 59 1 7.2034725 2.6531504999999997 1.6872135000000001
2088 60 1 8.7096135 2.788926 1.100673
2044 62 2 9.935772 2.0751045 0.11557035
4003 62 3 9.8367255 2.9501955 0.6496685999999999
2882 63 1 10.472395500000001 2.3790584999999997 1.4225505
2125 64 1 8.977993500000002 3.4234725000000004 0.040192005
2446 102 2 10.241595 3.5438865 1.556352
2441 65 1 11.072880000000001 2.153235 0.3605196
2483 66 1 11.1216 3.2341785 0.82588065
2519 67 1 11.621504999999999 2.2845690000000003 1.4219835
3282 68 1 12.194070000000002 1.8352635000000002 0.42674730000000005
3359 69 1 12.373410000000002 3.0706620000000004 1.0041958500000001
3321 70 1 13.335735 2.2570695 0.45402000000000003
2961 71 2 13.481160000000001 3.3529440000000004 0.8947239000000001
2883 72 1 12.77514 2.0012475000000003 1.435329
3278 73 1 14.513625000000001 2.3398304999999997 0.79614255
2844 74 1 14.611275000000001 3.064698 1.705578
3721 76 1 15.553335 2.963142 1.02187365
3356 118 1 14.572425 3.4634145000000003 0.5595597
3283 75 1 16.14837 2.0060145 0.7287273000000001
86 77 1 17.605035 2.8927185000000004 1.1022795
3724 119 1 16.496865 3.1227104999999997 0.3416679
3758 3688 1 17.193645 2.1734264999999997 0.16884315
526 43 1 1.0750635000000002 3.5901810000000003 1.3864515
4005 80 3 0.790482 4.237317 0.4002789
164 81 1 1.6904580000000002 5.033059499999999 0.20574015
165 82 1 0.098634585 4.231542 1.3882470000000002
122 83 1 1.0954755 4.8584655 1.346457
482 85 1 2.6167050000000005 4.141578 0.317541
523 88 2 2.8100415 3.8025750000000005 1.4512995000000002
484 89 1 3.561474 4.824918 0.42688485000000004
4006 88 3 3.472476 4.5644445 1.6575405
83 48 1 4.180365 3.6547140000000002 1.4975205
1281 91 1 4.6159785 4.5827985 0.7889248500000001
515 3700 1 4.374541499999999 3.7488885 0.059983980000000006
1404 93 1 5.703978 4.4237235 1.1544960000000002
1324 94 1 5.465764500000001 5.0365035 0.1820637
1317 95 1 5.996235 3.7323930000000005 0.25313085
1321 96 1 7.2172275 4.2498855 0.82938765
1680 97 1 8.3070225 4.3422225 0.38657220000000003
1684 98 1 8.1850965 3.8061345 1.4911155
1722 143 1 7.500318 5.343387 0.45930675000000004
1723 145 1 8.368269 4.986261000000001 1.326969
2012 99 1 9.243737999999999 3.944598 1.0345723500000001
2526 100 1 9.5770815 5.045271 0.9837219
2488 101 1 10.649939999999999 4.53852 1.13988
1719 3670 1 10.0993095 4.02717 0.22718325
2528 105 1 11.780370000000001 4.0926795 1.3071135
2639 107 1 11.667705 5.1922395 0.8574709500000001
3354 109 1 12.396510000000001 4.034730000000001 0.29942325000000003
2888 3714 1 11.27763 4.2369285 0.22458555
4004 71 3 14.028 4.054827 1.4143290000000002
2524 106 1 12.58992 5.180847 0.05343093
2522 108 1 12.742695 4.8234165 1.1709494999999999
2922 110 1 13.529775 4.3667505 0.3236982
3681 114 1 15.26217 4.0664505 1.3222965000000002
3762 115 1 15.59334 3.8538045000000003 0.14605605000000002
3398 116 2 14.683935 4.592826 0.25693185
3362 117 1 15.833895000000002 5.1072735 1.2479040000000001
4008 116 3 14.596995 5.0845725 1.158318
121 120 1 17.843490000000003 5.109741 0.6022337999999999
3684 121 1 16.825935 3.7415595 1.3994085
126 122 1 16.49046 4.441657500000001 0.53138295
3363 123 1 16.99698 4.9555275000000005 1.4340795000000002
4176 3690 3 17.497935000000002 3.8898405000000005 0.37954980000000005
3766 84 1 0.13734315 5.4184515 1.7720850000000001
163 124 1 1.4305515000000002 6.855691500000001 1.289316
3800 125 1 0.7945686 6.9390405 0.28417935000000005
565 126 1 0.8302413000000001 5.915878500000001 0.9822981
162 127 1 0.25692345 6.834082500000001 1.5066135
961 128 1 1.729623 6.202581 0.30628815
128 129 1 1.912218 5.731834500000001 1.4044695
559 130 1 2.75331 5.6439075 0.5686086
524 131 1 2.5188765 6.754954500000001 0.95857545
922 132 1 3.1602690000000004 6.0964785 1.6234365000000002
885 90 1 4.0722465 5.487258 1.3125735
562 133 1 4.6148655 5.841832500000001 0.3742032
598 134 1 3.634869 6.472284 0.6083721
1322 135 1 4.3107855 6.5867130000000005 1.5581895
1439 136 1 5.2830645 5.5536285 1.279782
1364 141 1 5.248435499999999 6.997515 0.98922705
884 137 1 6.4340850000000005 5.3716005 1.0009734000000001
1804 138 1 6.346903500000001 6.6956505 1.212204
1802 139 1 5.775105 6.11604 0.3782436
1363 140 1 7.159257 6.5709315 0.38468955
1798 146 1 7.362894 6.040765500000001 1.4036085
2485 147 1 8.683941 5.437183500000001 0.2480205
2122 148 1 10.609305 5.698098 0.96060405
2163 149 2 9.136721999999999 5.847912 1.7033310000000002
2239 150 2 9.7039635 6.470772 0.8436309000000001
4010 150 3 10.480953 6.841065 1.4116935000000002
2124 151 1 11.5437 6.373573500000001 1.1147955
2600 153 1 12.38685 7.126938 0.7434336
2997 111 1 13.6059 5.4912165 0.6293805
2964 154 1 12.592545000000001 5.9819655 0.8892156
3328 155 1 13.475909999999999 6.166293 1.6011555
3002 156 1 13.419 6.6489045 0.3742935
3364 157 1 14.413665 6.3269535 0.89595555
167 159 1 15.582630000000002 6.1231485 0.5871327
3405 588 2 15.985619999999999 6.720546000000001 1.569687
3765 161 1 17.678745 6.2647200000000005 0.5753181
3805 162 1 16.681035 5.619621 0.52482045
241 163 1 16.589160000000003 6.8099535 0.5897829000000001
3367 164 1 17.032365 6.14712 1.5367590000000002
558 165 1 0.8017390500000001 7.886256 1.0367616000000002
245 166 1 1.5371265 8.80845 0.60507615
240 167 1 0.049967505 8.5520505 0.36921255000000003
602 168 1 1.585248 8.4688905 1.719984
601 169 1 3.0494625 7.5934740000000005 0.25177845
280 170 1 1.8798465 7.658448 0.5838189
643 171 1 2.604168 8.4632415 1.0432789500000001
561 172 1 3.4359990000000002 7.343689500000001 1.3318725000000002
1039 173 1 4.5407565000000005 7.740432 1.579788
604 174 1 3.7722615000000004 8.430891 1.04597745
924 175 1 4.2153089999999995 7.504644000000001 0.49708260000000004
1083 176 1 5.024271000000001 8.727789 1.2100410000000001
679 178 1 5.2807335 7.9583805000000005 0.32716215
4179 3773 3 4.4702805 8.800176 0.16508415
1479 142 1 6.1456185 7.1813805 0.1693125
1079 177 1 6.115242 7.895191500000001 1.1411085
2161 144 1 8.703471 7.401828 1.00506105
1765 180 1 7.151098500000001 7.7194635 0.5349897
1443 181 2 7.5173175 7.4609325 1.6023945
1042 182 1 7.1836275 8.892345 0.47627265
1842 183 1 8.0650605 8.3609085 1.0372960500000001
1402 3783 1 8.70261 8.2750185 0.071136975
1764 184 1 9.317826 7.293468 0.02005101
1844 185 1 9.831297 7.858977 0.9548994000000001
2164 186 1 10.479861 7.3338405 0.04420836
2602 187 1 10.398738000000002 8.840853000000001 1.451709
2241 188 1 10.716405 8.478949499999999 0.39698715
2201 189 1 11.292645 7.521738000000001 0.86740815
2604 191 1 11.533725 8.5985655 1.250193
2637 192 1 12.037725 8.236861500000002 0.23938005
2963 190 1 12.582255 8.050056 1.4552685
3008 193 1 13.643595000000001 8.266030500000001 0.81699975
2608 194 1 13.453755000000001 7.2701895 1.3646535000000002
3403 196 1 14.540400000000002 7.51926 0.9083172
3803 197 1 15.379035 7.7346465 1.7386635
3402 198 1 15.675555000000001 7.7546385 0.5825190000000001
3043 199 1 14.771715000000002 8.5285305 0.30963135
3844 200 1 15.582630000000002 8.907685500000001 1.1020905
201 202 1 17.569125000000003 8.284468500000001 1.4575995000000002
3838 203 1 16.401210000000003 8.3173335 1.6528365
3804 204 1 17.621205 7.425663 0.66167745
4180 3805 3 16.90458 8.029875 0.007530411
202 205 1 0.6355996500000001 9.047367000000001 1.250718
678 206 1 1.6514715 10.543574999999999 1.651608
319 207 1 1.1845890000000001 9.9462615 0.7537614
3848 208 1 0.47711370000000003 10.222065 1.623888
208 209 1 2.141391 9.512706000000001 1.3256985000000001
242 210 1 3.1305015000000003 10.239705 1.304625
1115 211 1 2.9382675000000003 9.465666 0.45306345000000003
719 212 1 2.2271865 10.553235 0.68002935
1081 595 1 3.2399220000000004 9.1817355 1.765092
1117 213 1 4.0303515 9.558580500000001 0.92823885
284 214 1 5.198119500000001 9.8597205 0.87869355
722 255 1 3.9327435000000004 10.62747 0.43667085
1474 215 1 5.589496500000001 9.0571005 0.11495295000000001
1038 216 1 6.9055875 9.960825 0.6850641
644 217 1 6.1105485 10.469319 1.3615560000000002
684 218 1 6.0336675 10.527930000000001 0.1680462
1082 219 1 6.152338500000001 9.1787955 1.143765
1486 220 1 7.27965 10.533285000000001 1.6327710000000002
1044 221 1 8.291944500000001 9.3127125 0.43437975
1485 222 1 7.611681000000001 9.384994500000001 1.5037365
1445 223 1 8.3924715 10.255906500000002 1.68903
1841 224 1 7.9566375 10.406823000000001 0.62443605
1808 225 1 8.821239 9.202473000000001 1.4969535
2281 226 1 9.0608175 10.090027500000001 0.7493661
2243 227 1 9.8417235 9.8593635 1.5558375
2678 228 1 10.56027 9.671392500000001 0.5675523
2278 229 1 9.570109500000001 8.9805975 0.6107283
2685 230 1 11.72682 9.5473245 0.6310122000000001
2643 231 1 12.143880000000001 10.390253999999999 1.4058975000000002
3078 232 1 11.896185000000001 10.6428 0.3246642
2648 575 1 12.245310000000002 9.303105 1.7795085000000002
3085 615 1 11.132835000000002 9.799492500000001 1.6367820000000002
3401 234 1 12.73671 8.9828025 0.7771974
3079 237 1 14.038185 10.169775 1.1672745000000002
3038 238 1 12.9003 10.08777 0.561246
3404 3836 1 13.810335 9.335109000000001 0.37785090000000005
3406 236 1 14.405160000000002 9.050454 1.3163850000000001
3042 239 1 14.95641 9.7336575 0.5450907
3523 240 1 15.686580000000001 10.564575000000001 0.90250965
3478 241 1 15.203475000000001 9.852465 1.7278065
3483 242 1 16.166115 9.8535255 0.1463448
3880 243 1 17.801175 9.705738 0.6352489499999999
3845 244 1 16.823835000000003 9.013620000000001 0.8442294
3842 245 1 16.808505 10.158099 1.061886
3768 246 1 17.500245 9.416799000000001 1.7778915000000002
285 247 1 1.4631015 12.21822 0.40722675
3915 248 1 1.1467260000000001 11.093775 0.6851817
3881 249 1 0.36781395000000006 11.933775 0.8329398
282 630 1 0.8000349 11.36373 1.7708985
287 252 1 2.0289255 11.581395 1.2423915
720 253 1 3.143637 11.38536 0.9381330000000001
717 254 1 2.414685 11.612055000000002 0.08446788000000001
1128 258 1 3.8387370000000005 12.33666 0.7065954
723 259 1 5.0364405 12.138315 1.1874345
1481 260 1 4.788378000000001 12.125820000000001 0.04528608
1484 262 2 5.075805000000001 11.0334 0.7153702500000001
1442 261 1 7.025193000000001 11.13819 0.64168335
4012 262 3 5.966866500000001 11.532465 0.85554
1482 643 1 7.1215935 11.677365 1.6753799999999999
1848 265 1 8.17215 11.31774 1.296057
1881 266 2 7.708848000000001 12.109755 0.5690622000000001
4182 3829 3 10.015488000000001 10.73793 0.6947262000000001
1444 268 1 9.1270095 11.98008 1.0725645000000001
2718 269 1 8.987936999999999 11.159085000000001 0.23753520000000003
2242 271 1 10.1730195 11.654895 1.4220780000000002
1920 272 1 10.069248 11.866995000000001 0.26706435
2244 233 1 11.088840000000001 10.913490000000001 1.102941
2719 273 1 11.082015 12.128340000000001 0.8596518000000001
3118 274 1 12.052215000000002 11.54307 1.2637695
2755 277 1 12.185250000000002 12.44754 0.5061609
3075 278 1 12.603045000000002 11.471355 0.06379485
3044 279 1 13.16322 11.078655000000001 1.1207175
3157 280 1 13.414905000000001 12.17328 0.50944005
3084 281 1 14.133945 11.79444 1.3846559999999999
4183 3839 3 13.626165 10.85931 0.033800130000000005
3083 654 1 12.975585 12.1485 1.58592
3119 282 1 14.623035000000002 11.022795 0.6738837
3045 283 1 14.984445 10.995495 1.7714655000000001
3528 284 1 15.62757 11.557770000000001 0.3072447
3525 285 1 15.33252 12.03846 1.3944315
3518 3876 1 14.621145 12.140625 0.34188735
3919 250 1 17.792565 10.840620000000001 0.85125495
3448 286 1 16.577925 12.2409 1.0852695
3888 287 1 17.310405000000003 11.50905 1.6308705000000001
3886 288 1 16.690905 11.20203 0.59632335
3047 289 1 16.170315 11.26167 1.669332
331 251 1 1.343811 12.504450000000002 1.5235185000000002
286 290 1 0.4824624 13.07061 0.9211524
766 291 1 1.597974 13.351065 0.6836025
325 292 1 0.7179375 14.186760000000001 0.8243319000000001
3968 293 1 1.1727765 13.689060000000001 1.7488695
3929 323 1 0.02678823 13.747440000000001 1.7616479999999999
324 295 1 2.566893 12.55317 0.7699681500000001
763 296 1 2.2351035 13.28838 1.7239635
1562 297 2 3.3877200000000003 13.3308 0.3559395
724 3886 1 2.4498915 13.9608 0.10631985000000001
4014 297 3 3.8455935 13.519695 1.2589185
1563 298 1 4.949332500000001 13.22244 0.7775375999999999
761 299 1 4.3585815000000006 13.96269 0.14415239999999999
1523 263 1 6.712881 12.51894 1.0195458
1159 300 1 5.8146375 12.60966 0.310296
1561 301 1 5.9806215 13.799520000000001 0.48835185
1922 304 1 5.895078 13.23021 1.525566
1882 306 1 7.132965 13.447665 1.552467
4013 266 3 7.943964000000001 12.543195 1.4729820000000002
1921 305 1 7.256277 14.11431 0.5307708
2360 307 1 8.030295 13.239135000000001 0.4744026
1928 342 1 8.177872500000001 13.937280000000001 1.4787150000000002
1448 308 1 8.970654000000001 13.130250000000002 1.212519
2684 309 1 10.096065 12.767895000000001 1.0274313
2314 310 1 9.2760465 12.717075 0.10599855
1959 311 2 9.714904500000001 13.726650000000001 0.53231955
3082 275 1 11.82006 12.678120000000002 1.5909495
2723 313 1 11.11761 13.37322 0.9030546
3121 315 1 12.265260000000001 13.56264 0.7735119000000001
3124 317 1 13.371120000000001 13.25184 1.1034135
3554 356 1 14.173845000000002 14.104230000000001 0.91771155
3154 3912 1 13.130984999999999 14.203245 0.31647000000000003
3088 316 1 14.721315 13.029555 1.076229
3926 318 1 15.713775000000002 12.691455 0.52420095
3922 319 1 15.3132 14.228025 1.192674
4017 320 3 15.538425000000002 13.748070000000002 0.15316980000000002
3527 695 1 15.80292 13.24512 1.6034865000000003
3846 294 1 17.544030000000003 12.618165000000001 1.6593885000000002
3565 321 1 16.95414 13.396320000000001 1.0173891
3925 322 1 16.64985 14.164185 0.1879458
3482 324 1 17.40312 12.576165 0.3203382
321 325 1 17.781959999999998 13.713105 0.067625985
401 326 1 1.387428 15.306165 0.47350800000000004
11 327 1 0.9870178500000001 14.907690000000002 1.6543485
368 369 1 0.49673505 16.052925000000002 0.6189645
3605 370 1 0.8420727 16.02048 1.7519565000000001
363 3921 1 0.3549273 14.911050000000001 0.0018722865
764 329 1 2.894955 15.05784 0.64419075
328 330 1 1.901445 14.427735 1.0615815000000002
767 331 1 1.9769295 15.551340000000001 1.4717115
798 332 1 2.3432325 16.029615 0.38022705000000007
405 334 1 3.8496150000000005 15.85899 0.64365945
803 335 1 3.9534705000000003 14.698005000000002 1.0272759
1163 336 1 4.866939 15.415575 1.1108265000000002
1199 337 1 5.262138 14.293754999999999 1.394778
1200 340 1 5.2131765 15.90351 0.09072735
1522 303 2 6.483645 14.40348 1.3939905
1923 338 1 6.970057500000001 15.90351 1.3816110000000001
801 339 1 5.8591995 15.047235 0.64072365
808 720 1 5.913138000000001 15.347430000000001 1.778952
2400 3938 2 6.861403500000001 15.09354 0.039118485
1958 341 1 8.445066 14.415345 0.37011030000000006
2721 343 1 8.8643415 15.507765000000001 0.72293235
1968 345 1 7.9725135 15.0717 1.3556865000000002
4184 3938 3 7.827004500000001 15.403920000000001 0.21259350000000002
4016 311 3 10.373685 14.31108 1.067388
1966 347 1 9.903621 15.489285 1.237551
1924 348 1 9.198819 14.51646 1.2831735
2758 350 1 9.6765375 14.845320000000001 0.27637995
2358 384 1 9.772580999999999 16.014075000000002 0.1736364
2324 349 1 10.712100000000001 15.29892 0.4557084
2724 351 1 11.530785 14.50407 0.8411959500000001
3168 352 1 12.49395 15.166515 0.6705982500000001
3522 389 1 11.56323 15.912015 0.8610199500000001
3161 732 1 10.96494 15.149610000000001 1.624686
3159 353 1 12.867645 14.290920000000002 1.441965
3199 355 2 13.508040000000001 15.254715000000001 1.2710565000000003
3559 357 1 13.665435 15.22668 0.1298997
3205 358 1 14.71785 15.204945 0.71690535
2803 360 1 14.868735000000001 16.05597 1.4991585
3962 361 2 15.760185000000002 14.890785 0.33271875
3212 744 1 15.618435000000002 15.218805 1.7362170000000001
3568 328 1 17.725995 15.476895 1.4542185
4019 361 3 16.500855 15.2565 0.94869705
3965 362 1 16.430925000000002 14.3031 1.5760395
3924 363 1 17.449740000000002 14.490525 0.94656345
3961 3960 1 17.337390000000003 15.60321 0.27585075
404 4 1 1.7661630000000001 17.639580000000002 1.6519755
8 366 1 0.7318017 17.14293 1.732164
364 367 1 1.5065400000000002 16.537290000000002 0.9924799500000001
3604 368 1 0.74389245 17.22735 0.49981155000000005
765 333 1 2.998296 16.135875 1.33245
807 371 1 2.4789135 17.115000000000002 0.8827150500000001
838 372 1 3.3188400000000002 16.78929 0.050455230000000004
402 13 1 4.59711 17.751615 1.225161
403 373 1 3.6035580000000005 17.173275 1.09263
802 375 1 4.6680375000000005 16.605645 0.9743622000000001
804 376 1 4.3590435 17.333820000000003 0.12503085
843 374 1 5.4949965 17.30673 0.45498495000000005
1605 377 1 5.768133 16.21704 1.03832295
1598 378 1 6.8522265 17.508855 0.1331484
845 379 1 5.518674000000001 17.25129 1.6452660000000001
1994 380 1 6.576969 16.996140000000004 1.1163180000000001
2001 21 1 7.590817500000001 17.607975000000003 1.089921
1965 344 1 8.127 16.23111 1.2649455
1964 381 1 8.462149499999999 16.384095 0.104453475
1960 3978 1 7.358841000000001 16.499175 0.4268859
2398 386 1 10.4618535 16.4913 0.9342984000000001
2003 387 1 9.222486 16.7433 0.93224775
2403 388 1 9.951564 17.73345 0.9579328500000001
2801 391 1 11.13357 17.420655 0.6688185000000001
3207 392 1 12.24573 16.418325 1.6669905
3164 394 1 12.415935000000001 16.40163 0.1854279
2809 395 1 13.261185000000001 16.872135 1.2459405
3238 396 1 14.035770000000001 16.188270000000003 0.6772468500000001
4020 397 3 12.605250000000002 17.588234999999997 0.55588575
3562 359 1 15.969135000000001 16.25946 1.2594120000000002
3572 393 1 14.34279 17.52555 1.0399893
3203 398 1 15.155175000000002 16.47597 0.4268775
3609 399 1 15.477105 17.566395 0.60029235
3243 38 1 16.499175 17.84874 0.060775470000000005
362 364 1 17.134215 16.41066 1.1435865
3201 400 1 16.36278 16.726185 0.29698935000000004
5 401 2 17.439345 17.201835 0.3160416
4021 401 3 17.56944 17.519775000000003 1.2889380000000001
3648 402 1 16.41024 17.764635000000002 1.3147995
2 404 1 0.8475117000000001 0.3755241 2.1297465
406 405 1 1.1821949999999999 0.8353338000000001 3.1485300000000005
3644 407 1 0.559146 1.473003 2.4056445
3608 439 1 0.043005585 0.609861 3.048213
445 406 1 2.0180895000000003 0.6915111 2.362353
881 408 1 2.387469 1.7200785 1.861545
891 409 1 3.1587780000000003 0.99042615 2.3640960000000004
452 753 1 2.7189225 0.0027341475 2.9768445000000003
483 410 1 4.2481215 0.8426208000000001 1.9409355000000001
1285 411 1 4.0408095 1.4776335 3.0015405000000004
408 412 1 3.815931 0.38554950000000004 3.159387
448 413 1 5.0140649999999996 0.8956311 2.8248045000000004
1242 414 1 6.278748 0.8572389 2.4209745
1248 415 1 5.8994565 1.5320865000000001 3.284421
1646 416 1 6.6344355 0.6206445 3.5511105000000005
2049 420 1 7.081431 1.6574775 2.2810200000000003
4039 764 3 7.277907 0.19486425000000002 2.6355945
1612 418 1 8.1708585 0.46674075000000004 1.8855060000000001
2085 419 1 7.99029 1.1140395 2.8394100000000004
2002 421 1 8.7654315 0.19802475000000003 2.9882895
2008 422 1 9.0200985 1.1360160000000001 2.3028495
2045 423 1 9.3404535 1.1180925000000002 3.4294680000000004
2043 424 1 10.081449000000001 0.70742595 2.6258820000000003
2449 425 1 10.632510000000002 1.477959 3.2978505000000005
2362 770 1 9.342795 0.091932435 1.941618
2884 426 1 10.82025 1.4644035000000002 2.057874
4022 427 3 11.248230000000001 0.4394313 2.3537010000000005
3245 429 1 12.427484999999999 0.58629165 2.4002265
2047 430 1 11.73648 1.1245815 3.199854
3281 772 1 12.387585000000001 0.21275205 3.5329245
2847 31 1 13.327755 1.2462030000000002 2.1065730000000005
2849 431 1 13.025775000000001 1.153446 3.2812815000000004
3249 432 1 14.263620000000001 0.61563915 1.826286
3250 433 1 13.493655 0.23384865 2.6533395000000004
3693 434 1 14.183085 1.1136615 2.931054
3649 435 1 14.7714 0.044611875 2.7139875000000004
3289 436 1 15.55008 0.7101318000000001 3.3248565
3247 437 1 15.155385 1.166781 2.329593
3683 441 1 15.984990000000002 1.7428215 2.8407645
3678 438 1 17.652495000000002 0.77653275 1.8026505
3246 440 2 16.14123 0.42589995 2.3740815
4023 440 3 16.893555 1.071315 2.6556915
10 788 1 16.60911 0.20129655 3.450279
531 442 1 1.0452540000000001 2.4295215 1.799091
3643 443 1 1.6162755 1.845396 2.725569
82 444 1 0.7142163 2.574663 2.9221395
90 445 1 0.2642661 3.4083 2.239377
496 448 1 1.4653485 3.3816195000000002 2.4799845
4002 47 3 2.6856585 3.1890285000000005 2.4698729999999998
87 446 1 3.151428 2.1345975 2.684367
489 447 1 3.3678960000000004 3.4836795 3.396393
533 833 1 2.1098805 3.208086 3.523359
1282 449 1 4.916625000000001 2.833572 1.9025895000000002
488 450 1 3.8907225 2.9798055 2.4367245
1244 451 1 4.149579 1.9689285 1.9416705
1682 452 1 4.976328 2.1229845000000003 2.817024
1325 453 1 4.869207 3.292191 3.0663150000000003
1286 836 1 4.082694 2.5212285000000003 3.4795110000000005
1638 55 1 5.940679500000001 1.940568 2.192946
1283 454 1 6.555969 2.5542405 2.9703975
1648 456 1 7.653009 2.196663 3.112032
2051 457 1 8.779449000000001 2.0363070000000003 3.000921
1642 458 1 7.530537000000001 3.312897 3.324342
2046 459 1 8.231391 2.783739 2.2306935
2048 460 1 9.319684500000001 2.1733215 1.8901155000000003
2007 461 2 10.1983035 2.7846420000000003 2.4684450000000004
2129 463 1 9.2233155 3.3495945000000003 2.0277075
4024 461 3 10.756305 3.3658065 3.1093335
2487 464 1 12.334035000000002 2.863875 2.134734
2087 465 1 11.235420000000001 3.2162655 2.0226360000000003
2442 466 1 11.303355000000002 2.2716225000000003 2.7246135
2965 467 1 11.8755 3.177657 3.1196444999999997
2845 468 1 12.378870000000001 1.7873835 2.5158840000000002
2959 469 1 13.485255 2.8233765 1.934079
2852 470 1 13.518540000000002 2.142945 2.9113245
3325 471 1 13.032810000000001 3.3124664999999998 2.953923
2559 472 1 14.278215000000001 1.9138140000000001 1.9478550000000001
2851 474 1 14.203665 3.085635 2.8284480000000003
3244 473 1 15.421140000000001 2.27892 1.9677735
3727 475 1 15.87222 3.367791 2.0693610000000002
3690 476 1 15.793365 2.832102 3.1005975
3292 477 1 14.82159 2.126313 2.9488095000000003
125 78 1 16.560915 2.4484950000000003 1.913709
493 478 1 16.963275 2.3184735000000005 3.0759960000000004
529 479 1 17.703105 2.3271885 2.121966
3682 480 1 16.981965000000002 3.3839925 2.48409
172 483 1 0.7710843 4.413654 2.3917005000000002
532 484 1 0.90225765 4.775715000000001 3.4926885
925 518 1 1.4997465 5.2891755 2.5687305000000005
132 519 1 0.11206125 5.336289000000001 2.9183385000000004
530 828 1 0.99372315 3.6117585000000005 3.5066535
521 86 1 1.9382685000000002 4.3567125 1.9889940000000002
923 87 1 2.63466 5.329842 2.3130450000000002
127 482 1 1.8932025000000001 4.305777 3.1450125
525 486 1 2.962155 4.287381 2.682204
492 487 1 3.0590805 5.0874075 3.4957335000000005
883 92 1 4.6785585 4.7056275 1.8991455000000002
527 489 1 4.1061615 4.065453 2.6391225000000005
1721 490 1 5.026644 4.729515 3.009636
888 524 1 3.814293 5.19036 2.6024565
1681 455 1 5.386563000000001 3.851925 2.1575295000000003
962 491 1 5.7902775 4.9816305000000005 2.1712635000000002
928 492 2 6.091858500000001 4.2374115 3.0615900000000003
1678 493 2 7.099743 4.0100865 2.4966165
1323 494 1 6.693393 5.2044615 2.9258985
4026 493 3 7.5671085 4.492152000000001 3.2774805000000002
1318 495 1 7.2253125 4.9614075 1.822863
1727 496 1 8.418774 3.938844 2.644047
2127 497 1 8.285382 5.090704500000001 2.4948
1728 498 1 9.022356 4.75986 3.362793
2925 500 1 9.3263835 4.571028000000001 2.0967765000000003
4007 102 3 10.511130000000001 4.1994015 2.3047815000000003
2092 535 1 10.077186000000001 5.1293235 2.9591625
2567 501 1 11.042220000000002 4.488015000000001 3.3594855000000003
2565 502 1 11.123175000000002 5.155101 2.002938
2086 503 1 11.72157 4.172763000000001 2.4517395
2527 504 1 11.847675 5.208798 3.000144
2928 505 1 12.30348 4.1832 3.4434750000000003
3327 112 1 13.641705000000002 5.0779155 1.863981
2448 113 1 12.876570000000001 3.839052 1.798356
2927 506 1 12.768735000000001 4.7383035 2.530479
3323 507 1 13.726965 5.134521 3.0524970000000002
2968 508 1 13.778730000000001 4.116168 2.5326735
3725 509 1 15.730680000000001 5.222028 2.9020845
3290 510 1 14.9163 3.8933790000000004 2.4267075
3324 511 1 14.686875 5.0088255 2.3686005
3685 512 1 15.757875 4.0234845 3.1877895
3726 897 1 14.59017 4.4410905000000005 3.4079535
131 485 1 17.78742 3.999009 3.3423390000000004
3728 513 1 16.26576 4.444776000000001 2.2016400000000003
129 514 1 17.428425 4.457911500000001 2.3704275000000004
3722 515 1 16.75317 4.540651500000001 3.344922
522 517 1 0.9684255 6.204807000000001 2.1497070000000003
609 521 1 0.9134895000000001 5.9497305 3.5684775
209 909 2 0.47003565 7.043505000000001 3.5674485000000002
203 520 1 1.8278715 6.800556 3.4930665000000003
563 522 1 2.1837795 6.5293305 2.193366
963 523 1 2.7655005 6.1659885 3.146577
607 525 1 3.3522825000000003 6.9204870000000005 2.4040275
1401 526 1 4.765593 5.7812895 2.296287
1365 911 1 4.527159 5.7066975 3.4626900000000003
564 528 1 5.491794 6.676750500000001 2.0885130000000003
1328 529 1 5.6543655 5.773572000000001 3.0360750000000003
1726 531 1 6.401493 5.948523 2.0822760000000002
1767 532 1 7.245105000000001 7.128912000000001 3.4803615000000003
1762 533 2 8.305269 6.6549735000000005 1.9178145
4009 149 3 10.1231025 5.841412500000001 2.0036835
2203 534 1 10.279983 6.857403 2.630544
2202 536 1 9.359574 6.182694000000001 2.816436
1763 537 1 9.418289999999999 6.9894825 1.868874
2212 572 1 9.4517115 7.1335005 3.5300685
2561 538 1 12.174225 5.606685 1.8984525
1688 539 1 10.93848 5.8984485 2.8869540000000002
2607 540 1 12.03195 6.281488500000001 3.3484815
2564 541 1 11.412765000000002 6.68766 2.2391775000000003
2208 543 1 11.10522 6.98418 3.4170045000000004
2605 542 1 12.508440000000002 6.7555005 1.8516750000000002
2563 544 1 12.954270000000001 5.9283945000000005 2.6811855
3049 545 1 14.140245000000002 6.028365 2.526258
2611 546 1 13.466775 6.9730605 2.556582
3322 547 1 14.495355 6.9476085 1.945398
3007 548 2 15.247995000000001 6.028627500000001 2.1633045
4028 548 3 15.538845 6.895665000000001 2.6375580000000003
3365 549 1 14.564655 6.78699 3.3033105000000003
3326 938 1 14.729085 5.6030415 3.446436
3772 516 1 16.856595 5.4712245 2.5576950000000003
3371 550 1 16.602915 6.562269000000001 3.093762
166 551 1 17.65827 6.384094500000001 2.5164615
238 552 1 1.0039627500000001 7.492548000000001 2.1437535
206 553 2 1.4614740000000002 8.243424000000001 2.901024
3806 554 1 0.5008983 8.566194 2.2658895
3408 555 1 0.38996474999999997 8.189391 3.355464
605 556 1 2.393832 7.6090035 1.809549
965 557 1 2.6461365 7.6484835 3.001068
568 558 1 3.4799835000000003 8.0766315 2.2020180000000003
648 559 1 2.460885 8.7428985 2.4840585
687 560 1 3.770865 7.530190500000001 3.330495
1002 561 1 4.5372915 7.1445255 2.564163
1045 562 1 4.598443500000001 8.3317605 2.5912845000000004
1005 527 1 5.452356 7.300849500000001 3.2798115
1403 563 1 6.5390535000000005 7.266021 2.2327095
1362 564 1 5.5571565000000005 7.868007 2.1861315
1008 565 1 5.5554345000000005 8.442378 3.2666969999999997
1438 566 1 6.552525 8.55141 2.0453685
1805 567 1 6.670923 8.096403 3.0938775
4011 181 3 7.697655 8.334984 2.114427
4027 533 3 8.614252500000001 7.257390000000001 2.6964945000000005
2162 568 1 7.9127160000000005 8.1358095 3.2360055
1845 569 1 8.9086935 8.123808 1.917342
2168 570 1 10.3195785 7.864668000000001 3.2599245000000003