Position Data

4187 atoms
187 bonds

3 atom types
1 bond types

0.00 17.85 xlo xhi
0.00 17.85 ylo yhi
0.00 17.85 zlo zhi

Atoms

39 0 1 0.27470940000000005 0.84919275 1.685271
119 1 1 1.2319545 1.4333445 0.42780360000000006
40 2 1 1.310358 0.29110095 1.427391
3608 3 1 1.3151460000000001 1.766121 1.5284535000000001
4095 1971 3 1.089879 0.28024605 0.16286655
3279 4 1 0.11648385 0.9865369500000001 0.3668595
441 5 1 2.152584 0.5732359499999999 0.64041285
804 6 1 3.273543 1.2807270000000002 1.1973255
77 7 1 3.3353985 0.31033275000000005 0.4908351
41 108 1 2.2001174999999997 1.01240685 1.742013
38 901 1 2.8554855000000003 1.292634 0.042549465
842 8 1 4.539906 0.6254010000000001 0.96473685
802 9 1 3.7042635 0.23197020000000002 1.6222815
519 10 1 3.995019 1.313025 0.20462715
1279 12 1 5.5518435 0.95882325 1.6729965
1601 14 1 6.524511 0.09825249 1.606374
4049 909 3 5.4272715 1.1477025 0.48035295000000006
1203 1085 1 5.553313500000001 0.0030377445000000004 0.9787858500000001
1640 13 1 6.962991000000001 0.28161420000000004 0.28665735000000003
2078 17 1 8.449245000000001 1.3724235 0.08714958
1638 11 2 7.1925105 1.0545885 1.342572
1602 16 1 8.021517000000001 0.44429805 0.74254635
126 18 1 1.308048 2.654946 0.5363022000000001
3643 19 1 0.8965236000000001 2.8557585000000003 1.6375800000000003
81 20 1 0.30226455 3.2946165 0.40979820000000006
3641 21 1 0.2861397 2.1328965 0.43753815
42 23 1 2.0907705 2.983428 1.295952
44 24 1 2.2606710000000003 1.8957645 0.82358325
525 25 1 3.178959 2.934519 0.8456511000000001
487 26 1 3.7375170000000004 2.303553 1.722
1284 28 1 5.1010365 3.4915545 0.13405245000000002
848 29 1 4.1670300000000005 2.3582055 0.6342567
885 30 1 4.3840545 3.404751 1.1061435
1285 31 1 4.968789 1.8871545 1.3031234999999999
444 32 1 5.250567 2.3243325 0.23189355
448 47 2 3.958248 3.2958555 0.014621145
1677 33 1 6.8542635 2.9302035 0.9811578000000001
1644 34 1 5.5312635000000006 3.017301 1.1676735
4001 11 3 7.514356500000001 2.0179845000000003 1.5288629999999999
1679 36 1 8.61462 2.288811 0.904008
1723 37 1 8.401029000000001 3.3521460000000003 1.2869325
1681 38 1 8.299032 3.1695825 0.10275415500000001
82 39 1 1.6554090000000001 4.7232675 0.39412485
121 40 1 1.1458860000000002 3.8374770000000002 1.0442250000000002
84 41 1 0.34572405000000006 4.705302 1.3444725000000002
159 42 1 0.4816476 4.4393265 0.1819881
3724 43 1 1.411473 5.30607 1.7716755000000002
482 27 1 2.3962995 3.79848 0.45954615000000004
925 44 1 2.3870910000000003 4.7057745 1.3383194999999999
1365 45 1 3.4094445 5.238408 1.119258
521 46 1 3.11745 4.666368 0.09332169000000001
523 48 1 3.3584250000000004 4.0596885 1.1591055
4002 47 3 4.179357 4.2520905 0.3290301
928 49 1 4.364125500000001 4.5561915 1.4408205
883 52 1 5.402838 4.347125999999999 0.8391432000000001
1682 53 1 6.295390500000001 3.7269959999999998 0.36025815
1725 54 1 6.681402 4.6908330000000005 0.8885247000000001
1401 55 1 5.8648275 4.906797 1.765701
1288 56 1 6.2846280000000005 3.797766 1.5942045
1319 73 1 5.829778500000001 5.28969 0.26557965000000006
2161 57 1 8.016918 4.691809500000001 1.334487
1244 59 1 7.5197535 3.9102735 0.62365695
1363 60 1 7.6298775 5.2648155 0.36465975000000006
1726 61 1 8.7074715 4.179651 0.527247
565 62 2 1.4010570000000002 5.838819000000001 0.7174114500000001
201 63 1 0.3550281 6.6420900000000005 0.71545215
128 64 1 0.42183435 5.891025 1.5777510000000001
3803 65 1 1.4298060000000001 6.5516955 1.6599555000000001
4003 62 3 2.068248 6.624555 0.69271755
127 66 1 2.4984015000000004 5.574912 0.41537265
563 67 1 2.5654440000000003 7.091878500000001 1.6582335
922 68 1 2.4166485 5.887371000000001 1.5562470000000002
564 70 1 3.2233005 6.394248 0.92898645
1404 71 2 4.9970550000000005 5.446014 1.0536015
924 72 1 4.5277365 6.4045065 0.4168668
4004 71 3 5.422116 6.368040000000001 1.2179475000000002
1321 74 1 6.393460500000001 6.3304185 0.18116595
1323 75 1 6.4339485000000005 5.7798195 1.2079935000000002
1439 96 1 6.436794 6.986343000000001 1.1844735
1764 76 1 7.409041500000001 6.3785715000000005 0.77841225
1721 77 1 8.4626955 5.8547895 1.341039
2124 78 1 8.4134925 6.200397000000001 0.19295745
1804 80 2 8.39328 7.037268 1.0322907
203 81 1 1.221528 7.449645 0.88474365
240 82 1 1.7609235 8.25342 0.1424262
3839 83 1 0.069530265 7.7212065 1.0085229
605 85 1 0.88252185 8.5028895 1.3939485
4051 968 3 0.5446812 8.4722925 0.2047941
969 86 1 2.5729725 7.420224000000001 0.0104635965
601 87 1 3.032841 7.9740885 0.9461025000000001
1039 88 2 2.0595645 8.5826475 1.213737
163 69 1 3.672963 7.2183720000000005 0.28890330000000003
965 89 1 3.7306185000000003 7.252707 1.553706
559 90 1 4.609416 7.573167 0.88016565
1000 91 1 4.831218000000001 8.733984000000001 0.9844768500000001
958 92 1 3.9846135 8.3517525 0.24539235
1001 93 1 3.8890215 8.427426 1.595685
1360 94 1 5.5738935 7.1412915 0.39162795
1438 95 1 5.6495565 7.901376000000001 1.2812205
1802 97 1 6.571036500000001 8.476503000000001 0.7993828500000001
1808 100 1 7.3591455 7.606515 0.87268755
1844 101 1 8.4894285 8.1921525 0.38225775
2602 102 2 7.914165000000001 8.462254500000002 1.3996815
1879 103 1 7.4299155 8.479054500000002 0.006529089000000001
48 105 1 1.1559344999999999 1.02813795 2.4559605
3648 107 1 0.4844721 0.5802310500000001 3.316593
88 124 1 0.57169665 1.727775 3.4393485000000004
402 1169 1 1.8360930000000002 0.12397455 2.4864525000000004
412 109 1 2.158989 1.0739505 3.1401405000000002
483 110 1 2.938194 0.4307373 2.4532935
3 111 1 2.7445005 0.1598058 3.5507115000000002
485 116 2 3.4410495 1.491903 2.5304895000000003
1245 112 1 4.3813875 1.1406885000000002 1.9692645000000002
887 113 1 5.006736 0.9602313000000001 2.971899
1247 114 1 4.030614 0.2886534 2.7808725
1641 115 1 4.9294875000000005 0.11458965 2.080197
1248 117 1 6.0330795 0.40695585 2.6238555
1648 118 1 6.473901 1.428756 2.2188495
2011 119 1 6.826806 1.0430931 3.3890535
1643 15 1 8.2278105 1.0525935 1.8653985
1646 120 1 7.253053500000001 0.6030024 2.4144959999999998
2085 121 1 8.265306 1.0532234999999999 3.067302
1604 122 1 7.554928500000001 0.06116544 3.380727
4060 1180 3 8.2681935 0.045263715 2.4752595000000004
1642 140 1 7.4796854999999995 1.736847 2.6543685
45 104 1 0.3998085 1.8970665 2.277996
446 125 1 1.145529 2.7477345000000004 3.1731945
3687 126 1 0.1539069 2.9918385 2.538879
527 127 1 3.0112110000000003 3.2922435000000005 1.9577355
43 128 1 2.6037480000000004 2.1363615 1.9656420000000001
488 129 1 3.3727575 2.5942455 2.8311675
90 130 1 2.306283 3.0130274999999997 2.827062
486 233 1 2.5362750000000003 2.1481529999999998 3.5644980000000004
4008 116 3 4.332320999999999 1.9635630000000002 2.749782
889 132 1 4.31088 3.1244955 3.2216835
481 133 1 4.7467245 2.762445 2.0194545
1289 134 1 5.6890365 3.0752925 2.5752405
1687 137 1 6.405399000000001 2.1891450000000003 3.165015
852 138 1 5.4493425 1.9160190000000001 2.4148425000000002
1685 139 1 6.6301305 2.609271 2.0864865000000004
1678 35 1 7.4113725 3.533628 1.794219
1691 141 1 7.579981500000001 2.8468755000000003 2.712444
2087 142 1 8.5387575 2.1600075000000003 2.0912745
1730 143 1 8.49072 2.231313 3.243681
1692 144 1 8.628732000000001 3.2569529999999998 2.5014675000000004
87 145 1 0.5322261 3.727815 3.4068825
526 146 1 1.2921405000000001 4.824666000000001 2.8305795000000002
3647 147 1 0.5971959 4.0559085 2.2913205
3728 148 1 0.2271507 5.1599415 2.448957
529 149 2 1.670886 3.685668 2.1004935000000002
496 150 2 1.648605 3.807195 3.271569
531 251 1 3.284148 4.824193500000001 3.468192
4009 149 3 2.412102 4.2767550000000005 2.5037985000000003
891 151 1 3.277743 3.7300410000000004 3.062493
528 153 1 3.536211 4.644076500000001 2.2666245000000003
1325 51 1 5.165454 3.8774715 1.8946830000000001
929 154 1 4.3209495 4.3096095000000005 3.138471
1286 155 1 4.067385 3.6476055 2.1966945
1366 156 1 4.865658000000001 4.9934745000000005 2.4270225
1326 157 1 5.643036 5.2140795 3.4780515000000003
1327 158 1 7.0300545 4.591062 2.0436045000000003
1686 159 1 6.697866 3.6283905 2.705073
1370 160 1 5.766411 4.2971985 2.7812295000000002
1728 162 1 6.6482745 4.4822715 3.536778
2165 163 1 7.7673015 4.068477000000001 2.834097
2163 164 1 8.293708500000001 5.0535975 2.404122
1798 182 1 7.5221265 5.278077000000001 3.2389875000000004
136 2159 1 0.1872087 5.6333235 3.5454825000000003
132 165 1 0.99270465 6.0258345 2.6631150000000003
3768 166 1 0.4263462 7.0500465000000005 1.872486
492 267 1 1.9525905000000001 5.6080815 3.3407115000000003
522 152 1 2.747829 5.409264 2.5448325
567 168 1 2.9400315000000004 6.2133225 3.3750780000000002
888 169 1 3.2929995 6.4486065 2.2897035000000003
162 170 1 2.131038 6.432594000000001 2.5559309999999997
931 171 1 3.89214 5.62338 2.9049405
968 172 1 4.8831195 6.0405135 3.3062925
1368 173 1 4.4774835 6.6094455000000005 2.3383815
967 174 1 3.9918795 6.743583 3.4554765
1766 161 1 6.4865639999999996 5.3626965 2.7084330000000003
562 176 1 5.6614215 7.089537000000001 2.098488
1364 177 1 5.510358 5.929938000000001 2.3040570000000002
1361 178 1 6.5569875 6.399162 2.191371
1328 179 1 6.006441 6.3291165000000005 3.2622660000000003
1767 79 1 7.4140500000000005 5.6700105 1.840419
1409 180 1 7.171731 6.4168545 3.1496640000000005
1765 181 2 7.521391500000001 6.887023500000001 1.8050445000000002
1762 183 1 8.174292000000001 6.225639 2.5687725
207 1091 1 0.84131985 8.889342 2.5804485
172 186 1 0.080733555 7.327078500000001 2.92194
606 187 1 1.241142 7.1587320000000005 2.813097
569 190 1 1.6737105 7.769832000000001 1.9443375
168 191 1 1.682646 8.215053 3.0266145000000004
608 188 1 2.7427995000000003 8.5695645 3.3364065000000003
926 189 1 2.560803 7.4208435 2.955519
647 192 1 2.876433 8.1743655 2.127384
1052 296 1 4.7181015 8.278840500000001 3.2049675000000004
1003 175 1 5.142291 7.195587000000001 3.101259
568 193 1 4.7836845 8.885855999999999 2.2116045
561 194 1 4.703517000000001 7.738101 2.0665365
1012 195 1 3.7491405 8.7398325 2.751525
572 196 1 3.722271 7.553427 2.6749485
1446 198 1 6.592131 8.555106 3.1339140000000003
962 98 1 6.654994500000001 8.2052775 1.9626915
1362 199 1 6.361981500000001 7.39557 3.0073890000000003
1002 197 1 5.659678500000001 8.1971085 2.5367265
4007 102 3 8.689715999999999 8.671687499999999 2.042355
4011 181 3 8.2384785 7.5782175 2.0628405
1805 202 1 8.531838 7.2506070000000005 3.1184160000000003
1405 200 1 8.4265755 8.442483 3.160164
1402 201 1 7.457499 7.7947905 2.942709
2285 1107 1 7.4978085000000005 8.902614000000002 2.4261195
409 203 1 1.0071852000000001 0.1086015 4.667271
46 204 1 0.36357825 1.0797885 4.672122
452 205 1 1.4297535 1.2843704999999999 5.103840000000001
809 206 1 1.3478850000000002 1.0245259500000001 3.9850125
456 208 1 2.3976435 1.4740214999999999 4.487794500000001
1209 209 1 3.474534 0.33695865 4.3962135
806 210 1 2.166696 0.3553851 4.547655000000001
408 211 1 3.297609 1.2449115 3.678759
1249 212 1 4.5125745 0.1312752 3.8564925000000003
812 213 1 4.35057 1.1550630000000002 4.4180535
847 214 1 5.2918845 0.52540215 4.715928000000001
1645 215 1 6.905241 0.13380465 4.334022000000001
1256 216 1 6.6792075 1.31313 4.50618
1252 217 1 5.578839 1.4839545 3.9766440000000003
1576 218 1 7.4892615000000005 0.5807214 5.201531999999999
1652 219 1 7.802214 0.9225531 4.133388
2091 220 1 8.571286500000001 0.27295065 4.866162
1251 239 1 7.6474755000000005 1.780065 4.9146615
2049 223 1 8.913324000000001 1.42296 4.0143705
52 224 1 0.7496097 2.2229550000000002 5.0113875000000005
493 225 1 0.9771342000000001 3.1993815 4.3575105
91 226 1 1.4893830000000001 2.1570675 4.1282955
3691 227 1 0.1136772 2.726409 3.773364
846 228 1 3.464097 1.850625 4.749181500000001
890 229 1 3.0212175 2.878575 5.128032
489 230 1 2.1286545 3.1613085 4.156089000000001
56 231 1 1.9718265000000001 2.3448495 5.1955575000000005
490 232 1 3.264009 2.9632365000000003 3.964674
851 234 1 4.9329105 2.060415 4.8971685
1293 235 1 4.2017955 2.9848455 4.6726785
1689 236 1 5.1757124999999995 2.5823910000000003 3.8294550000000003
491 131 1 4.0862535 2.1535290000000002 3.849825
1283 135 1 5.9369309999999995 3.4570515 3.624915
1693 136 1 7.0088445 3.0949485 3.6924615000000003
856 237 1 6.2619585 2.448474 4.306995
1287 238 1 5.441289 3.126459 4.8787305000000005
1656 240 1 7.4802735 2.9329755 4.80795
1296 241 1 8.520477 2.4572625 4.4066085
2090 243 1 8.116017000000001 3.269973 3.6319395
1690 221 1 7.451461500000001 2.0209035 3.7897650000000005
95 244 1 0.5433508499999999 4.0187385 5.032198500000001
92 245 1 1.6695315000000002 4.146954 4.73592
533 246 1 0.98934675 5.1157995 5.058354
131 247 1 0.9446902500000001 4.723949999999999 3.948357
4010 150 3 2.2070790000000002 4.5218145000000005 3.7505895000000002
930 249 1 2.842161 3.9481995000000003 4.681687500000001
573 250 1 2.552235 5.0726025 4.7257455
1290 252 1 4.888611000000001 3.7043580000000005 4.0260885
970 253 1 3.6697605 4.778025 4.862665499999999
896 254 1 3.8096205000000003 3.962343 4.0961445
936 255 1 4.7523945 4.3843380000000005 5.013876000000001
932 256 1 4.5973725000000005 5.0367765 4.040463
1729 257 1 6.520185 3.5967225000000003 4.619538
1329 258 1 5.7241485 4.3982505000000005 4.2770174999999995
892 259 1 6.6882375000000005 4.822839 4.733074500000001
1736 242 1 8.4533715 3.617376 4.665675
2126 261 1 8.7321045 4.8066795 4.767189
1332 262 2 7.471464000000001 4.0854765 5.070492
2130 263 1 7.7214165 4.332993 3.9793635000000003
2092 264 1 8.847184500000001 4.2200025000000005 3.7121700000000004
2166 283 1 8.650824 5.335428 3.581529
530 167 1 0.65760345 6.673317000000001 3.700116
96 265 1 0.32480595 6.043821 4.6574325
134 266 2 1.3607895 5.8579185 4.2531825
4013 266 3 1.3554135 6.405336 5.124
571 268 1 2.605785 6.240255 4.61475
532 286 1 1.906233 6.768762000000001 3.721095
886 269 1 3.599946 5.6961765 4.1652555
576 272 1 3.9113130000000003 6.690463500000001 4.6344165
966 273 1 4.394901 5.6612955 5.0493765
1007 274 1 5.0328495 6.3909720000000005 4.408939500000001
1371 260 1 5.6074935 5.432574 4.755859500000001
1376 275 1 7.0321335 5.919732 5.0860635
1047 276 1 6.933465 6.7447695 4.224276
1372 277 1 6.6512355 5.6425635000000005 3.9350325
607 278 1 6.061566 6.521151 4.942392
1731 280 1 7.786254 5.410282500000001 4.399573500000001
1412 281 1 8.1326595 6.3553455 3.8244885
2174 282 1 7.842786 6.7947075 4.9666155
176 284 1 0.64523865 7.266777 4.6994325
212 285 1 0.957936 8.473342500000001 4.786446
609 291 1 1.6187535000000002 7.571949 5.2932915
209 184 1 0.69538665 7.9324770000000004 3.715551
963 270 1 3.0182984999999998 7.1632365 4.008637500000001
570 287 1 2.882607 8.2185285 4.457806499999999
574 288 1 2.1163800000000004 8.609097 5.1961665
211 289 1 1.7988075000000001 7.963011000000001 4.15023
1494 292 1 4.674705 8.567349 4.417938
610 293 1 3.750432 8.044228500000001 3.7403730000000004
566 294 1 4.69476 7.452858 4.125828
1009 297 2 3.9274935 7.839069 4.910692500000001
1813 401 2 5.291128500000001 8.911098 5.3361525
1005 279 1 5.8415175 7.1723715 4.035171
1450 295 1 5.470332 7.792396500000001 4.9524195
1413 298 1 6.284124 8.578206 4.851546
1008 299 1 5.6833350000000005 8.289288 3.8421285000000003
1811 300 1 6.711936 7.513002 5.175345
1403 301 1 6.771460500000001 7.890960000000001 4.0479915
1406 302 1 7.451577 8.6985885 4.6506075000000004
1776 303 2 7.836528 7.4613315 4.0057920000000005
4015 303 3 8.373582 7.9076235 4.7607735
98 305 1 0.67750095 1.6992150000000001 6.0847815
410 306 1 0.928977 0.51374295 5.804841
54 311 2 1.6612365 0.055930245 6.596919
16 307 1 1.830171 1.6345245 6.151089
849 308 1 2.161341 0.58333065 5.699526
451 309 1 3.136623 0.7901943 6.3446145000000005
460 310 1 2.6382615000000005 1.779519 6.971853
454 312 1 3.7958760000000002 0.8238783 5.4087915
453 313 1 4.2568155 0.88009425 6.600132
1297 314 1 4.937604 1.098258 5.670220500000001
1264 315 1 5.3069625 0.95761365 7.091238000000001
1250 319 1 6.299055000000001 0.5937728999999999 5.372997000000001
899 320 2 6.054804 1.61175 6.3951405
854 322 1 7.036081500000001 0.1980615 6.205699500000001
1260 318 1 5.959086 0.0007001925 6.8391225
1651 222 1 8.4234465 1.267665 5.5910925
1657 321 1 7.770105 0.7999929 6.898437
1295 323 1 7.313113500000001 1.402905 5.9938935
2099 324 1 8.8899615 0.97897065 6.587595
1210 325 1 8.224503 0.2030154 6.005496000000001
140 326 1 1.2238695 3.189522 5.498829000000001
94 327 1 0.2184567 2.7894195 5.928825
97 328 1 1.245615 2.6251575000000003 6.514158000000001
450 330 1 2.9259195 1.8000885 5.779777500000001
497 331 1 2.37657 2.705052 6.2587245
893 332 1 3.5323155 2.8059465 6.159972000000001
499 316 1 3.8009895 1.9079445000000002 6.9027525
850 333 1 4.086306 1.8822825 5.737809
1291 334 1 4.6312560000000005 2.908479 5.7514275
897 335 1 4.950571500000001 1.9930365 6.5044455
1298 336 1 4.3885380000000005 2.9277569999999997 6.9399015
1337 337 1 5.687178 3.1633035 6.158418000000001
895 338 1 6.2698125000000005 2.4089940000000003 5.4802230000000005
1369 360 1 6.7568865 3.5689395 5.813073000000001
1733 363 1 6.597234 3.2425260000000002 6.9262305
1660 439 1 8.1307065 1.976121 6.660213000000001
1655 339 1 7.2520455 2.5775609999999998 6.1612635000000004
1654 341 1 8.3108235 2.461074 5.581894500000001
1336 342 1 7.940551500000001 3.5048790000000003 5.9206455
1340 442 1 7.8958425000000005 3.2534775000000002 7.0500465000000005
100 343 1 1.4000595000000002 3.724329 6.8486460000000005
133 344 1 0.10539375000000001 4.814796 5.8030875
3739 345 1 0.31380615 3.8491845000000002 6.483372
135 346 1 0.8656578 4.8511575 6.707053500000001
494 347 1 1.2922665000000002 4.293229500000001 5.835753
500 348 1 2.9054025 3.710994 6.560652
537 349 1 2.126208 4.5544485 6.605235
535 350 1 2.2557570000000005 3.6704114999999997 5.628756
939 351 1 2.9602965 4.5915555 5.7767955
540 352 1 1.943613 5.2529924999999995 5.7075795000000005
1331 353 1 4.086159 4.9519364999999995 5.9401965
1294 354 1 3.7939755 3.7838640000000003 5.521698
941 356 1 4.802710500000001 4.9230195 6.8569094999999995
935 357 1 4.862350500000001 3.9947985000000004 6.1151265
898 358 1 3.9384555000000003 4.117039500000001 6.770862
937 355 2 5.405841 5.0077755 5.874067500000001
927 359 1 5.8200135 4.079901 5.4029430000000005
1292 361 2 6.6190845000000005 4.7825505 5.925339
1375 362 1 5.8998975 4.207959 6.671931
4012 262 3 7.9208745 4.7283285 5.7346275
2137 364 1 8.437569000000002 4.271442 6.683355000000001
1334 366 1 7.2610335 4.2084525 6.711159
178 368 1 0.7639065 6.3931665 7.0640849999999995
933 369 1 0.86680125 5.791443 5.9872575
177 370 1 1.6528365 5.6503335 6.8324025
3735 371 1 1.2162045000000001 6.9300525 6.175071000000001
173 372 1 0.1912869 6.7239795 5.656287000000001
974 271 1 3.1474275 6.8269005 5.4944085000000005
938 373 1 2.1885045000000005 6.338566500000001 5.9634015
534 374 1 2.7648495 5.486313 6.534192
575 375 1 3.1180275 6.5587305 6.6285975
536 376 1 3.2486790000000005 5.688354 5.4728520000000005
1774 378 1 5.263146000000001 6.123768 5.678452500000001
1330 379 1 4.679346000000001 7.077021 5.407332
973 380 1 4.1137215000000005 6.262819500000001 6.045837
979 381 1 5.0079225 6.0852645 6.797616
975 476 1 3.823092 5.568811500000001 6.954381000000001
1815 477 1 5.9855985 6.736138500000001 6.964450500000001
4018 355 3 5.915259000000001 5.3691960000000005 6.6924795
4019 361 3 7.1304975 5.393734500000001 6.5828805
1769 383 1 6.4195215 6.1924695000000005 6.0394635
1011 384 1 5.794929000000001 7.134078000000001 5.8658565
2170 385 1 8.335330500000001 5.790288 5.402124
2211 386 1 8.072841 7.127200500000001 6.737881499999999
1780 387 1 7.557921 6.386509500000001 6.0348435
2173 388 1 8.2519815 5.8796535 6.821367
215 389 1 1.2863235000000002 8.764066500000002 5.949027000000001
175 390 1 0.5708052 7.872438000000001 5.741568
174 392 1 0.13179495 7.3797675 6.6743145
251 393 1 0.1596063 8.594155500000001 6.6354120000000005
577 394 1 1.2453210000000001 7.928497500000001 6.739467
619 395 1 2.295657 7.4567535000000005 6.340152000000001
618 396 1 2.2842855 8.5632855 6.836077500000001
580 397 2 2.999577 7.963326 5.5796685
4020 397 3 3.364137 8.4906255 6.3817635
1010 400 1 3.8341275 7.3994025 6.2408220000000005
651 402 1 4.414515 8.2319685 6.891801000000001
4014 297 3 4.4705010000000005 8.210286 5.7047025
1014 399 1 4.929645 7.2190545 6.591196500000001
1456 407 1 7.0644945 8.562498 5.731288500000001
1810 404 1 5.9987865 8.235507 5.9862705
972 406 1 6.8812275000000005 7.290160500000001 6.3175245
1420 403 1 6.0033225 8.7419745 7.0509705
1770 408 1 8.6158065 8.237355 6.602988000000001
1415 304 1 7.842513 7.704868500000001 5.763313500000001
1806 1295 1 8.240547 8.8802805 5.5579335
1416 409 1 7.450464 8.2304145 6.763743
57 410 1 1.4145390000000002 0.54590025 8.719073999999999
64 411 1 0.36479520000000004 0.32559555 8.389479
3701 412 1 0.7953918 1.4437920000000002 8.243949
3696 413 1 1.2228615 0.62189505 7.553196000000001
99 428 1 1.425732 1.749279 7.2630285
3256 2407 1 0.27200565 1.487346 7.2025274999999995
3620 2403 1 0.014479185 0.36718710000000004 7.309071
3656 414 1 2.161425 1.294524 8.0636325
457 415 1 2.5331775 0.5686884 8.895159
459 416 1 3.2905425 1.1087265000000002 7.640283
420 417 1 3.4071240000000005 0.101619735 8.3222895
4016 311 3 2.348451 0.5948533500000001 7.1401995
414 418 1 3.5725305000000005 0.08054571 7.186095
857 419 1 4.3896615 0.67318965 7.796271
824 420 1 4.901589 0.8839194 8.8326735
901 421 1 3.922758 1.527687 8.511174
1300 422 1 6.808588500000001 0.91421505 7.8203475
820 423 1 6.1215525 0.88586295 8.792028
860 1473 1 5.5173825 0.09716007 8.000097
1224 424 1 8.432308500000001 1.429092 7.637994000000001
1254 425 1 7.884922500000001 0.42026565000000005 7.982845500000001
2064 515 1 8.521548000000001 0.9166353 8.863092
501 426 1 1.134336 3.2252955 7.8318765
60 427 2 1.6118655 2.2878345 8.35296
4114 2425 3 0.07576779 3.1525725 8.2380795
101 329 1 0.2666748 2.749971 7.144011
4022 427 3 2.042061 3.206847 8.5394505
458 429 1 2.92698 2.3103675 8.259573
3704 430 1 2.0738025 2.708202 7.3858995
902 431 1 3.2172105 2.8769160000000005 7.281435000000001
507 545 1 3.1838205000000004 3.511095 8.3508285
495 432 1 4.737264000000001 1.8401040000000002 7.660012500000001
900 433 1 4.0526955000000005 2.6758725 8.070709500000001
904 434 1 5.157369 3.0879135 8.253903
1341 528 1 4.2605325 3.548013 8.842365000000001
1223 531 1 4.8821535 2.119551 8.839278
4017 320 3 6.5899155 2.062641 7.150479000000001
1304 435 1 6.5696505 2.806692 8.059044
1302 436 1 5.838021 1.896258 8.146908
1701 437 1 6.997494 1.7974005000000002 8.574310500000001
1303 438 1 5.563362000000001 2.7347565 7.2474885
1698 440 2 7.6003515 2.3120895 7.6925205
4023 440 3 8.265600000000001 2.9757210000000005 8.1132345
2502 2413 1 8.904535500000001 2.0481405 8.4595035
138 443 1 0.479661 4.19559 7.6214775
104 445 1 1.1680935000000001 4.1744955 8.552061
3743 446 1 0.5053545 5.147005500000001 8.881173
139 447 1 1.606395 5.2437525 8.5909635
102 448 1 1.5834840000000001 4.698235500000001 7.5953745
539 449 1 3.0641835000000004 4.6734029999999995 7.325902500000001
503 450 1 2.3270939999999998 3.801525 7.562782500000001
542 451 1 2.5183935 4.577979 8.4009765
894 452 1 4.9451220000000005 3.844428 7.319088
541 453 1 4.0375965 4.3201725 7.9328445
944 454 1 4.5663555 5.02236 8.699901
940 547 1 5.3300415 4.144098 8.775542999999999
1777 455 1 5.3904165 4.809609000000001 7.8198015000000005
1338 456 1 5.978637 3.8039190000000005 7.791756
1344 458 1 6.572464500000001 4.8486270000000005 7.5412575
1743 459 1 6.103944 5.073736500000001 8.685578999999999
1740 461 2 7.110516 3.803373 7.801941
1694 553 2 6.428247 3.643584 8.855091
1737 457 1 7.6172565 3.6478260000000002 8.8156215
1377 460 1 7.2308985 4.766496000000001 8.531491500000001
4024 461 3 7.996254 4.320088500000001 7.7656845
2144 462 1 8.713404 4.017111000000001 8.7344775
2138 463 1 8.658846 5.115621 8.279019
181 444 1 0.6142898999999999 5.385366 7.6959435
179 464 1 1.3900845000000002 6.1751025 7.9818375
183 465 1 0.3097395 6.2052165 8.51466
3740 466 1 0.16123485 7.073535000000001 7.7762055000000005
144 467 1 2.3952495000000003 5.573347500000001 7.7099925
579 468 1 3.0691710000000003 6.533247 7.8392055
184 469 1 2.146683 6.8335995 8.5204035
934 470 1 3.5222355 5.43144 8.1078165
581 566 1 2.629242 5.749600500000001 8.8493475
584 377 1 2.0970600000000004 6.6486315 7.1633205
1013 471 1 4.078746000000001 6.706749 7.2086594999999996
977 472 1 4.113112500000001 6.53583 8.363827500000001
1373 473 1 4.628757 5.6829885 7.774662
1374 474 1 5.0999655 6.7615275 7.762167000000001
1381 475 1 5.2569195 6.033699 8.704615500000001
1773 478 1 5.8885995 5.852091 7.7398335000000005
971 479 1 6.819603000000001 5.96274 8.5058295
980 495 1 6.168991500000001 6.9176625000000005 8.1404085
2177 480 1 7.6076805 5.5205115000000005 7.727454
1779 481 1 8.2679205 6.557050500000001 7.829766
1738 482 1 7.1779470000000005 7.06902 8.604886500000001
1384 382 1 7.147329000000001 6.555906 7.2579255
1742 579 1 7.9154040000000006 5.7588195 8.875671
1783 580 1 8.2552365 6.992853 8.916159
258 483 1 1.70646 8.426208 7.833273
3415 484 1 0.86018625 7.21854 8.7481905
219 485 1 0.5535474 8.1731475 7.633290000000001
621 486 1 0.9218307 8.389983 8.6951865
180 487 1 1.341711 7.315455000000001 7.7203349999999995
615 398 1 3.1692045 7.599942 7.1754795
620 488 1 3.562587 8.692446 7.5291195
611 489 1 2.948148 7.6894125 8.3142675
623 589 1 1.9442115000000002 7.9431345 8.8746945
976 492 2 4.136674500000001 7.697592 7.8960105
4025 492 3 4.7382195000000005 8.403591 8.3503875
1015 493 2 5.343135 7.867104 7.495887
1419 491 1 5.523924 7.613109000000001 8.834301
4026 493 3 5.9975265 8.3726895 8.1093075
1821 494 1 7.115766 8.6575335 7.801636500000001
1784 405 1 6.540103500000001 7.7066745 7.3374630000000005
2577 496 1 8.733438000000001 7.6629000000000005 8.0689245
1451 497 1 7.647790500000001 7.5855255 7.6959225
1781 498 1 7.809217500000001 8.099595 8.716302
1819 499 1 8.293047 8.666868000000001 7.7165865
2299 2473 1 8.894991000000001 8.5356075 8.809353000000002
424 1561 1 1.7565975 0.09155391 9.719629500000002
3698 502 1 1.7503815 1.3188840000000002 9.551934000000001
62 503 1 0.5525016 1.1056920000000001 9.314592000000001
28 504 1 0.9637467 0.7345926 10.3673955
864 505 1 2.9564955000000004 1.6259670000000002 9.2084475
461 507 1 2.674497 0.75579945 10.006794
463 508 1 3.5188335 1.335369 10.568145
822 506 1 3.6285795 0.6740475 9.3094995
903 510 1 4.6266255 0.3930864 9.886012500000001
863 511 1 4.289544 1.5042090000000001 9.662772
862 1570 1 3.6100365 0.15499155 10.41474
1258 512 1 5.7327795 0.84211365 9.952425000000002
1272 514 1 6.6866520000000005 1.496355 9.6577635
1622 1580 1 6.6075765 0.13120905000000002 9.5815335
1699 516 1 8.5147335 1.1902695 10.282555499999999
1661 517 1 7.358568000000001 0.7354263 8.9665485
827 518 1 7.4143755 0.7615398000000001 10.190901
1299 519 1 7.870653000000001 1.688274 9.4650885
1623 1584 1 8.3336085 0.13657665 9.8226975
905 520 1 1.7259585 2.48598 10.68144
63 521 1 0.63847245 2.3406914999999997 8.987832
462 522 1 0.8682009 1.9380375 10.0750755
68 523 1 1.6292745000000002 2.7251595 9.55668
505 541 1 0.7292260500000001 3.45114 9.328095000000001
502 524 1 2.7744045 2.8486815 9.374410500000002
858 525 1 2.6534340000000003 2.0258175 10.239558
906 527 1 2.4812655 3.5063280000000003 10.2972345
1342 526 1 3.5938770000000004 2.681448 10.347718500000001
859 529 1 3.839619 2.4739785000000003 9.2012865
1308 530 1 4.7479425 2.415294 10.1675595
1333 532 1 5.2836315 3.1925355 9.476995500000001
1702 533 2 6.256152 2.498958 9.1682745
1703 534 1 6.160455 2.3942205 10.3979715
1741 535 1 7.0648095 3.2176935 10.401489000000002
4027 533 3 7.248255 2.6624010000000005 9.3985185
2107 536 1 7.293604500000001 2.093028 10.4701275
1704 537 1 8.388156 2.3735145 10.285075500000001
2139 539 1 8.4686175 2.8044135 9.228828
107 540 1 1.3378050000000001 3.580521 10.316008499999999
3705 542 1 0.1874817 3.789723 10.3140345
143 543 1 0.93352665 4.548432 9.779217000000001
148 652 1 1.8149775000000001 4.566933 10.664535
544 544 1 2.8139685 4.622121000000001 9.9978165
498 546 1 1.9470045 4.057609500000001 9.403275
504 548 2 3.51078 3.6993074999999997 9.750867000000001
1343 550 1 3.5244825000000004 4.581465 8.9818575
548 568 1 1.8644955 5.278938 9.70998
1775 549 1 4.5443265 4.2774585 9.688056000000001
978 574 1 5.333916 5.1735075 9.556911000000001
1307 552 1 5.994849 3.584826 10.594605
4029 553 3 6.920928 4.104471 9.6330255
1745 554 1 6.1417755000000005 4.754704500000001 10.3027365
1707 555 1 6.991267500000001 5.2660125 9.5668755
2145 558 1 7.996359 3.5859705 9.9090285
2147 559 1 8.238258 4.515903000000001 10.592505000000001
1787 560 1 7.974057 4.626699 9.407947499999999
182 562 1 1.3132560000000002 6.20256 9.158646
188 563 1 0.5001045000000001 5.782318500000001 9.88176
221 564 1 0.77840175 6.992727 9.874115999999999
583 565 1 1.530438 6.2190765 10.362618000000001
588 567 1 1.9122495000000002 7.0805805 9.651295500000002
538 569 1 2.8376145000000004 5.90289 10.030587
982 570 1 3.206637 6.775965 9.0547905
578 571 1 4.693563 6.948679500000001 9.28032
981 572 1 3.7821420000000003 5.758389 9.200079
943 573 1 4.294857 6.268353 10.153489500000001
1348 669 2 4.9960785 5.394417000000001 10.68228
1339 575 1 6.435408000000001 5.9676540000000005 10.352559
1382 576 2 5.415364500000001 6.278097000000001 9.9497265
4030 576 3 5.7147195 7.0739445000000005 10.52919
1380 577 1 6.285489 6.9740055000000005 9.439059
1786 578 1 6.855135 7.077052500000001 10.50336
1752 561 1 8.154447000000001 5.5889925 10.017651
1378 581 1 7.24689 6.3764295 9.5851455
1785 582 1 8.1968145 6.779556 10.031511
261 684 1 0.33390315 7.8280965 10.550925000000001
582 583 1 1.400238 8.661681 9.7196085
3863 585 1 0.13942320000000002 7.8751785000000005 9.424800000000001
259 586 1 1.48911 7.82838 10.534125000000001
663 587 1 2.824689 8.710695 8.98695
1023 588 2 2.534805 7.328317500000001 10.63146
1063 591 1 2.86545 7.735749 9.5889465
1022 592 1 2.5142145 8.484934500000001 10.404691500000002
1050 490 1 3.8360595 7.9874445000000005 8.9858055
1067 590 1 3.58302 8.611291500000002 9.947553000000001
1421 593 1 3.923766 7.419016500000001 10.015057500000001
1424 594 1 4.792242000000001 8.1092445 9.622304999999999
1433 691 1 4.4498475 8.402992500000002 10.682910000000001
1417 596 1 6.642804000000001 8.086596 9.000778500000001
1418 597 1 5.592867 8.755761 9.0910365
1379 598 1 5.922924 7.995897 9.9121365
1778 601 1 7.4023215 7.525539 9.632154